<?xml version="1.0" encoding="UTF-8"?>

<!-- generated on 2024-10-24 15:48:49 by Eclipse SUMO GUI Version 1.15.0
<configuration xmlns:xsi="http://www.w3.org/2001/XMLSchema-instance" xsi:noNamespaceSchemaLocation="http://sumo.dlr.de/xsd/sumoConfiguration.xsd">

    <input>
        <net-file value="grid.net.xml"/>
        <route-files value="grid.rou.xml"/>
    </input>

    <output>
        <emission-output value="emissions.xml"/>
        <summary-output value="summary.xml"/>
        <tripinfo-output value="tripinfo.xml"/>
    </output>

    <time>
        <begin value="0"/>
        <end value="-1"/>
        <step-length value="1"/>
    </time>

    <random_number>
        <random value="false"/>
        <seed value="23423"/>
    </random_number>

    <gui_only>
        <quit-on-end value="false"/>
        <game value="false"/>
        <start value="false"/>
        <demo value="false"/>
        <disable-textures value="false"/>
        <tracker-interval value="1"/>
        <osg-view value="false"/>
        <gui-testing value="false"/>
        <gui-testing-debug value="false"/>
    </gui_only>

</configuration>
-->

<tripinfos xmlns:xsi="http://www.w3.org/2001/XMLSchema-instance" xsi:noNamespaceSchemaLocation="http://sumo.dlr.de/xsd/tripinfo_file.xsd">
    <tripinfo id="12.0" depart="0.00" departLane="top1B1_0" departPos="5.10" departSpeed="0.00" departDelay="0.00" arrival="77.00" arrivalLane="C0bottom2_0" arrivalPos="86.00" arrivalSpeed="13.14" duration="77.00" routeLength="925.99" waitingTime="0.00" waitingCount="0" stopTime="0.00" timeLoss="10.04" rerouteNo="0" devices="tripinfo_12.0 emissions_12.0" vType="DEFAULT_VEHTYPE" speedFactor="1.03" vaporized="">
        <emissions CO_abs="2840.571894" CO2_abs="228056.094325" HC_abs="17.937070" PMx_abs="3.669482" NOx_abs="89.334925" fuel_abs="72739.457136" electricity_abs="0"/>
    </tripinfo>
    <tripinfo id="14.0" depart="3.00" departLane="bottom2C0_0" departPos="5.10" departSpeed="0.00" departDelay="3.00" arrival="78.00" arrivalLane="B1top1_0" arrivalPos="86.00" arrivalSpeed="13.26" duration="75.00" routeLength="925.99" waitingTime="0.00" waitingCount="0" stopTime="0.00" timeLoss="10.23" rerouteNo="0" devices="tripinfo_14.0 emissions_14.0" vType="DEFAULT_VEHTYPE" speedFactor="1.05" vaporized="">
        <emissions CO_abs="2620.221500" CO2_abs="235893.547190" HC_abs="16.822991" PMx_abs="3.492931" NOx_abs="90.113510" fuel_abs="75239.369551" electricity_abs="0"/>
    </tripinfo>
    <tripinfo id="10.0" depart="0.00" departLane="bottom1B0_0" departPos="5.10" departSpeed="0.00" departDelay="0.00" arrival="97.00" arrivalLane="D1right1_0" arrivalPos="86.00" arrivalSpeed="13.41" duration="97.00" routeLength="1158.47" waitingTime="0.00" waitingCount="0" stopTime="0.00" timeLoss="12.74" rerouteNo="0" devices="tripinfo_10.0 emissions_10.0" vType="DEFAULT_VEHTYPE" speedFactor="1.01" vaporized="">
        <emissions CO_abs="3357.635048" CO2_abs="289758.650976" HC_abs="21.561507" PMx_abs="4.415032" NOx_abs="112.174898" fuel_abs="92419.855779" electricity_abs="0"/>
    </tripinfo>
    <tripinfo id="11.0" depart="0.00" departLane="bottom2C0_0" departPos="5.10" departSpeed="0.00" departDelay="0.00" arrival="104.00" arrivalLane="A1left1_0" arrivalPos="86.00" arrivalSpeed="13.85" duration="104.00" routeLength="1193.51" waitingTime="6.00" waitingCount="1" stopTime="0.00" timeLoss="23.23" rerouteNo="0" devices="tripinfo_11.0 emissions_11.0" vType="DEFAULT_VEHTYPE" speedFactor="1.08" vaporized="">
        <emissions CO_abs="4937.609621" CO2_abs="332860.815445" HC_abs="29.552329" PMx_abs="5.464012" NOx_abs="130.535505" fuel_abs="106167.736106" electricity_abs="0"/>
    </tripinfo>
    <tripinfo id="12.1" depart="30.00" departLane="top1B1_0" departPos="5.10" departSpeed="0.00" departDelay="0.00" arrival="107.00" arrivalLane="C0bottom2_0" arrivalPos="86.00" arrivalSpeed="13.82" duration="77.00" routeLength="925.99" waitingTime="0.00" waitingCount="0" stopTime="0.00" timeLoss="8.92" rerouteNo="0" devices="tripinfo_12.1 emissions_12.1" vType="DEFAULT_VEHTYPE" speedFactor="0.99" vaporized="">
        <emissions CO_abs="2654.707205" CO2_abs="221471.526306" HC_abs="17.029892" PMx_abs="3.481360" NOx_abs="86.446611" fuel_abs="70639.322724" electricity_abs="0"/>
    </tripinfo>
    <tripinfo id="14.1" depart="30.00" departLane="bottom2C0_0" departPos="5.10" departSpeed="0.00" departDelay="0.00" arrival="111.00" arrivalLane="B1top1_0" arrivalPos="86.00" arrivalSpeed="13.07" duration="81.00" routeLength="925.99" waitingTime="0.00" waitingCount="0" stopTime="0.00" timeLoss="10.45" rerouteNo="0" devices="tripinfo_14.1 emissions_14.1" vType="DEFAULT_VEHTYPE" speedFactor="0.97" vaporized="">
        <emissions CO_abs="2714.548513" CO2_abs="226968.511205" HC_abs="17.249731" PMx_abs="3.317546" NOx_abs="86.942676" fuel_abs="72392.880322" electricity_abs="0"/>
    </tripinfo>
    <tripinfo id="8.0" depart="3.00" departLane="top1B1_0" departPos="5.10" departSpeed="0.00" departDelay="3.00" arrival="114.00" arrivalLane="D0right0_0" arrivalPos="86.00" arrivalSpeed="12.75" duration="111.00" routeLength="1193.51" waitingTime="5.00" waitingCount="1" stopTime="0.00" timeLoss="23.70" rerouteNo="0" devices="tripinfo_8.0 emissions_8.0" vType="DEFAULT_VEHTYPE" speedFactor="0.99" vaporized="">
        <emissions CO_abs="5066.568170" CO2_abs="328913.418941" HC_abs="30.283361" PMx_abs="5.315874" NOx_abs="129.833403" fuel_abs="104908.881158" electricity_abs="0"/>
    </tripinfo>
    <tripinfo id="6.0" depart="0.00" departLane="bottom3D0_0" departPos="5.10" departSpeed="0.00" departDelay="0.00" arrival="119.00" arrivalLane="A1top0_0" arrivalPos="86.00" arrivalSpeed="13.51" duration="119.00" routeLength="1425.99" waitingTime="0.00" waitingCount="0" stopTime="0.00" timeLoss="19.91" rerouteNo="0" devices="tripinfo_6.0 emissions_6.0" vType="DEFAULT_VEHTYPE" speedFactor="1.05" vaporized="">
        <emissions CO_abs="4705.648037" CO2_abs="368399.032990" HC_abs="29.446449" PMx_abs="5.939144" NOx_abs="144.359631" fuel_abs="117502.493070" electricity_abs="0"/>
    </tripinfo>
    <tripinfo id="0.0" depart="0.00" departLane="left1A1_0" departPos="5.10" departSpeed="0.00" departDelay="0.00" arrival="124.00" arrivalLane="D0right0_1" arrivalPos="86.00" arrivalSpeed="14.68" duration="124.00" routeLength="1425.99" waitingTime="0.00" waitingCount="0" stopTime="0.00" timeLoss="26.04" rerouteNo="0" devices="tripinfo_0.0 emissions_0.0" vType="DEFAULT_VEHTYPE" speedFactor="1.06" vaporized="">
        <emissions CO_abs="5462.601552" CO2_abs="398134.858994" HC_abs="33.710585" PMx_abs="6.727077" NOx_abs="158.598229" fuel_abs="126986.719829" electricity_abs="0"/>
    </tripinfo>
    <tripinfo id="5.0" depart="0.00" departLane="left0A0_0" departPos="5.10" departSpeed="0.00" departDelay="0.00" arrival="124.00" arrivalLane="D1right1_0" arrivalPos="86.00" arrivalSpeed="13.70" duration="124.00" routeLength="1425.99" waitingTime="1.00" waitingCount="1" stopTime="0.00" timeLoss="23.04" rerouteNo="0" devices="tripinfo_5.0 emissions_5.0" vType="DEFAULT_VEHTYPE" speedFactor="1.03" vaporized="">
        <emissions CO_abs="5563.556436" CO2_abs="395671.930307" HC_abs="34.054838" PMx_abs="6.643809" NOx_abs="157.688446" fuel_abs="126201.274670" electricity_abs="0"/>
    </tripinfo>
    <tripinfo id="2.0" depart="0.00" departLane="top0A1_0" departPos="5.10" departSpeed="0.00" departDelay="0.00" arrival="125.00" arrivalLane="D0bottom3_0" arrivalPos="86.00" arrivalSpeed="12.78" duration="125.00" routeLength="1425.99" waitingTime="0.00" waitingCount="0" stopTime="0.00" timeLoss="13.58" rerouteNo="0" devices="tripinfo_2.0 emissions_2.0" vType="DEFAULT_VEHTYPE" speedFactor="0.94" vaporized="">
        <emissions CO_abs="4071.581465" CO2_abs="339024.540270" HC_abs="25.995912" PMx_abs="5.107683" NOx_abs="131.205345" fuel_abs="108133.613428" electricity_abs="0"/>
    </tripinfo>
    <tripinfo id="4.0" depart="0.00" departLane="right0D0_0" departPos="5.10" departSpeed="0.00" departDelay="0.00" arrival="129.00" arrivalLane="A1left1_1" arrivalPos="86.00" arrivalSpeed="14.09" duration="129.00" routeLength="1425.99" waitingTime="6.00" waitingCount="1" stopTime="0.00" timeLoss="33.22" rerouteNo="0" devices="tripinfo_4.0 emissions_4.0" vType="DEFAULT_VEHTYPE" speedFactor="1.09" vaporized="">
        <emissions CO_abs="6751.972264" CO2_abs="431703.730951" HC_abs="40.151496" PMx_abs="7.376178" NOx_abs="172.088312" fuel_abs="137694.047035" electricity_abs="0"/>
    </tripinfo>
    <tripinfo id="10.1" depart="20.00" departLane="bottom1B0_0" departPos="5.10" departSpeed="0.00" departDelay="0.00" arrival="132.00" arrivalLane="D1right1_0" arrivalPos="86.00" arrivalSpeed="11.94" duration="112.00" routeLength="1158.47" waitingTime="3.00" waitingCount="1" stopTime="0.00" timeLoss="18.39" rerouteNo="0" devices="tripinfo_10.1 emissions_10.1" vType="DEFAULT_VEHTYPE" speedFactor="0.92" vaporized="">
        <emissions CO_abs="4622.908404" CO2_abs="304211.096012" HC_abs="27.994898" PMx_abs="4.770877" NOx_abs="119.894269" fuel_abs="97030.049761" electricity_abs="0"/>
    </tripinfo>
    <tripinfo id="15.0" depart="3.00" departLane="bottom1B0_0" departPos="5.10" departSpeed="0.00" departDelay="3.00" arrival="135.00" arrivalLane="C1top2_0" arrivalPos="86.00" arrivalSpeed="11.73" duration="132.00" routeLength="925.99" waitingTime="42.00" waitingCount="1" stopTime="0.00" timeLoss="55.01" rerouteNo="0" devices="tripinfo_15.0 emissions_15.0" vType="DEFAULT_VEHTYPE" speedFactor="0.89" vaporized="">
        <emissions CO_abs="10201.865279" CO2_abs="348079.362334" HC_abs="54.366814" PMx_abs="6.201735" NOx_abs="142.196032" fuel_abs="111024.371795" electricity_abs="0"/>
    </tripinfo>
    <tripinfo id="2.1" depart="10.00" departLane="top0A1_0" departPos="5.10" departSpeed="0.00" departDelay="0.00" arrival="135.00" arrivalLane="D0bottom3_0" arrivalPos="86.00" arrivalSpeed="11.71" duration="125.00" routeLength="1425.99" waitingTime="0.00" waitingCount="0" stopTime="0.00" timeLoss="13.45" rerouteNo="0" devices="tripinfo_2.1 emissions_2.1" vType="DEFAULT_VEHTYPE" speedFactor="0.94" vaporized="">
        <emissions CO_abs="3881.019854" CO2_abs="336120.598114" HC_abs="25.049433" PMx_abs="4.944069" NOx_abs="129.378375" fuel_abs="107207.421763" electricity_abs="0"/>
    </tripinfo>
    <tripinfo id="2.2" depart="20.00" departLane="top0A1_0" departPos="5.10" departSpeed="0.00" departDelay="0.00" arrival="138.00" arrivalLane="D0bottom3_0" arrivalPos="86.00" arrivalSpeed="15.36" duration="118.00" routeLength="1425.99" waitingTime="1.00" waitingCount="1" stopTime="0.00" timeLoss="26.01" rerouteNo="0" devices="tripinfo_2.2 emissions_2.2" vType="DEFAULT_VEHTYPE" speedFactor="1.13" vaporized="">
        <emissions CO_abs="5535.312011" CO2_abs="408522.891104" HC_abs="34.083575" PMx_abs="6.845457" NOx_abs="160.745048" fuel_abs="130300.084428" electricity_abs="0"/>
    </tripinfo>
    <tripinfo id="4.1" depart="15.00" departLane="right0D0_0" departPos="5.10" departSpeed="0.00" departDelay="0.00" arrival="144.00" arrivalLane="A1left1_1" arrivalPos="86.00" arrivalSpeed="12.94" duration="129.00" routeLength="1425.99" waitingTime="2.00" waitingCount="1" stopTime="0.00" timeLoss="27.11" rerouteNo="0" devices="tripinfo_4.1 emissions_4.1" vType="DEFAULT_VEHTYPE" speedFactor="1.02" vaporized="">
        <emissions CO_abs="5889.578134" CO2_abs="401698.273166" HC_abs="35.722449" PMx_abs="6.681821" NOx_abs="159.826874" fuel_abs="128123.632247" electricity_abs="0"/>
    </tripinfo>
    <tripinfo id="6.2" depart="30.00" departLane="bottom3D0_0" departPos="5.10" departSpeed="0.00" departDelay="0.00" arrival="144.00" arrivalLane="A1top0_0" arrivalPos="86.00" arrivalSpeed="14.56" duration="114.00" routeLength="1425.99" waitingTime="0.00" waitingCount="0" stopTime="0.00" timeLoss="18.89" rerouteNo="0" devices="tripinfo_6.2 emissions_6.2" vType="DEFAULT_VEHTYPE" speedFactor="1.09" vaporized="">
        <emissions CO_abs="4586.552471" CO2_abs="380933.932903" HC_abs="29.035555" PMx_abs="6.162005" NOx_abs="149.267458" fuel_abs="121500.313532" electricity_abs="0"/>
    </tripinfo>
    <tripinfo id="2.3" depart="30.00" departLane="top0A1_0" departPos="5.10" departSpeed="0.00" departDelay="0.00" arrival="145.00" arrivalLane="D0bottom3_1" arrivalPos="86.00" arrivalSpeed="14.91" duration="115.00" routeLength="1425.99" waitingTime="0.00" waitingCount="0" stopTime="0.00" timeLoss="20.73" rerouteNo="0" devices="tripinfo_2.3 emissions_2.3" vType="DEFAULT_VEHTYPE" speedFactor="1.10" vaporized="">
        <emissions CO_abs="4638.822762" CO2_abs="373461.761987" HC_abs="29.355055" PMx_abs="6.232324" NOx_abs="147.812509" fuel_abs="119116.952834" electricity_abs="0"/>
    </tripinfo>
    <tripinfo id="12.2" depart="60.00" departLane="top1B1_0" departPos="5.10" departSpeed="0.00" departDelay="0.00" arrival="145.00" arrivalLane="C0bottom2_0" arrivalPos="86.00" arrivalSpeed="12.48" duration="85.00" routeLength="925.99" waitingTime="0.00" waitingCount="0" stopTime="0.00" timeLoss="12.30" rerouteNo="0" devices="tripinfo_12.2 emissions_12.2" vType="DEFAULT_VEHTYPE" speedFactor="0.94" vaporized="">
        <emissions CO_abs="3209.790842" CO2_abs="227836.855737" HC_abs="19.779574" PMx_abs="3.572448" NOx_abs="89.543605" fuel_abs="72669.860105" electricity_abs="0"/>
    </tripinfo>
    <tripinfo id="6.1" depart="15.00" departLane="bottom3D0_0" departPos="5.10" departSpeed="0.00" departDelay="0.00" arrival="147.00" arrivalLane="A1top0_0" arrivalPos="86.00" arrivalSpeed="12.76" duration="132.00" routeLength="1425.99" waitingTime="3.00" waitingCount="1" stopTime="0.00" timeLoss="25.13" rerouteNo="0" devices="tripinfo_6.1 emissions_6.1" vType="DEFAULT_VEHTYPE" speedFactor="0.97" vaporized="">
        <emissions CO_abs="5659.442973" CO2_abs="373720.302246" HC_abs="34.180671" PMx_abs="6.250524" NOx_abs="149.434361" fuel_abs="119199.989483" electricity_abs="0"/>
    </tripinfo>
    <tripinfo id="14.2" depart="63.00" departLane="bottom2C0_0" departPos="5.10" departSpeed="0.00" departDelay="3.00" arrival="148.00" arrivalLane="B1top1_0" arrivalPos="86.00" arrivalSpeed="12.56" duration="85.00" routeLength="925.99" waitingTime="0.00" waitingCount="0" stopTime="0.00" timeLoss="10.14" rerouteNo="0" devices="tripinfo_14.2 emissions_14.2" vType="DEFAULT_VEHTYPE" speedFactor="0.91" vaporized="">
        <emissions CO_abs="2900.669644" CO2_abs="234793.293474" HC_abs="18.376298" PMx_abs="3.312158" NOx_abs="89.580724" fuel_abs="74888.834960" electricity_abs="0"/>
    </tripinfo>
    <tripinfo id="4.2" depart="30.00" departLane="right0D0_0" departPos="5.10" departSpeed="0.00" departDelay="0.00" arrival="151.00" arrivalLane="A1left1_1" arrivalPos="86.00" arrivalSpeed="13.43" duration="121.00" routeLength="1425.99" waitingTime="0.00" waitingCount="0" stopTime="0.00" timeLoss="19.82" rerouteNo="0" devices="tripinfo_4.2 emissions_4.2" vType="DEFAULT_VEHTYPE" speedFactor="1.03" vaporized="">
        <emissions CO_abs="4726.191518" CO2_abs="385831.117822" HC_abs="30.057783" PMx_abs="6.142339" NOx_abs="151.084477" fuel_abs="123062.490487" electricity_abs="0"/>
    </tripinfo>
    <tripinfo id="11.1" depart="20.00" departLane="bottom2C0_0" departPos="5.10" departSpeed="0.00" departDelay="0.00" arrival="154.00" arrivalLane="A1left1_0" arrivalPos="86.00" arrivalSpeed="12.40" duration="134.00" routeLength="1193.51" waitingTime="13.00" waitingCount="2" stopTime="0.00" timeLoss="42.42" rerouteNo="0" devices="tripinfo_11.1 emissions_11.1" vType="DEFAULT_VEHTYPE" speedFactor="0.95" vaporized="">
        <emissions CO_abs="7490.214076" CO2_abs="371394.562693" HC_abs="42.407082" PMx_abs="6.330931" NOx_abs="149.655269" fuel_abs="118459.201893" electricity_abs="0"/>
    </tripinfo>
    <tripinfo id="0.1" depart="10.00" departLane="left1A1_0" departPos="5.10" departSpeed="0.00" departDelay="0.00" arrival="155.00" arrivalLane="D0right0_1" arrivalPos="86.00" arrivalSpeed="11.37" duration="145.00" routeLength="1425.99" waitingTime="4.00" waitingCount="1" stopTime="0.00" timeLoss="25.89" rerouteNo="0" devices="tripinfo_0.1 emissions_0.1" vType="DEFAULT_VEHTYPE" speedFactor="0.88" vaporized="">
        <emissions CO_abs="6135.675817" CO2_abs="388658.030331" HC_abs="36.728581" PMx_abs="6.196689" NOx_abs="153.962527" fuel_abs="123964.964034" electricity_abs="0"/>
    </tripinfo>
    <tripinfo id="10.2" depart="40.00" departLane="bottom1B0_0" departPos="5.10" departSpeed="0.00" departDelay="0.00" arrival="156.00" arrivalLane="D1right1_0" arrivalPos="86.00" arrivalSpeed="13.31" duration="116.00" routeLength="1158.47" waitingTime="6.00" waitingCount="2" stopTime="0.00" timeLoss="30.34" rerouteNo="0" devices="tripinfo_10.2 emissions_10.2" vType="DEFAULT_VEHTYPE" speedFactor="1.00" vaporized="">
        <emissions CO_abs="5884.078052" CO2_abs="343786.877803" HC_abs="34.316865" PMx_abs="5.699436" NOx_abs="136.977875" fuel_abs="109653.038806" electricity_abs="0"/>
    </tripinfo>
    <tripinfo id="0.3" depart="30.00" departLane="left1A1_0" departPos="5.10" departSpeed="0.00" departDelay="0.00" arrival="159.00" arrivalLane="D0right0_1" arrivalPos="86.00" arrivalSpeed="12.79" duration="129.00" routeLength="1425.99" waitingTime="0.00" waitingCount="0" stopTime="0.00" timeLoss="24.56" rerouteNo="0" devices="tripinfo_0.3 emissions_0.3" vType="DEFAULT_VEHTYPE" speedFactor="1.01" vaporized="">
        <emissions CO_abs="5359.118240" CO2_abs="390796.804803" HC_abs="33.043992" PMx_abs="6.388267" NOx_abs="154.742976" fuel_abs="124646.456184" electricity_abs="0"/>
    </tripinfo>
    <tripinfo id="0.2" depart="20.00" departLane="left1A1_0" departPos="5.10" departSpeed="0.00" departDelay="0.00" arrival="165.00" arrivalLane="D0right0_1" arrivalPos="86.00" arrivalSpeed="10.69" duration="145.00" routeLength="1425.99" waitingTime="0.00" waitingCount="0" stopTime="0.00" timeLoss="18.86" rerouteNo="0" devices="tripinfo_0.2 emissions_0.2" vType="DEFAULT_VEHTYPE" speedFactor="0.83" vaporized="">
        <emissions CO_abs="5319.117272" CO2_abs="363240.267034" HC_abs="32.592890" PMx_abs="5.539845" NOx_abs="142.953872" fuel_abs="115857.783363" electricity_abs="0"/>
    </tripinfo>
    <tripinfo id="6.3" depart="45.00" departLane="bottom3D0_0" departPos="5.10" departSpeed="0.00" departDelay="0.00" arrival="166.00" arrivalLane="A1top0_0" arrivalPos="86.00" arrivalSpeed="13.06" duration="121.00" routeLength="1425.99" waitingTime="0.00" waitingCount="0" stopTime="0.00" timeLoss="17.09" rerouteNo="0" devices="tripinfo_6.3 emissions_6.3" vType="DEFAULT_VEHTYPE" speedFactor="1.00" vaporized="">
        <emissions CO_abs="4614.848039" CO2_abs="371717.592216" HC_abs="29.284823" PMx_abs="5.996421" NOx_abs="146.452199" fuel_abs="118560.852612" electricity_abs="0"/>
    </tripinfo>
    <tripinfo id="12.3" depart="90.00" departLane="top1B1_0" departPos="5.10" departSpeed="0.00" departDelay="0.00" arrival="167.00" arrivalLane="C0bottom2_0" arrivalPos="86.00" arrivalSpeed="14.48" duration="77.00" routeLength="925.99" waitingTime="0.00" waitingCount="0" stopTime="0.00" timeLoss="14.17" rerouteNo="0" devices="tripinfo_12.3 emissions_12.3" vType="DEFAULT_VEHTYPE" speedFactor="1.09" vaporized="">
        <emissions CO_abs="3446.846207" CO2_abs="244382.748192" HC_abs="21.031852" PMx_abs="4.104149" NOx_abs="96.733506" fuel_abs="77946.958714" electricity_abs="0"/>
    </tripinfo>
    <tripinfo id="14.3" depart="90.00" departLane="bottom2C0_0" departPos="5.10" departSpeed="0.00" departDelay="0.00" arrival="168.00" arrivalLane="B1top1_0" arrivalPos="86.00" arrivalSpeed="13.38" duration="78.00" routeLength="925.99" waitingTime="0.00" waitingCount="0" stopTime="0.00" timeLoss="10.34" rerouteNo="0" devices="tripinfo_14.3 emissions_14.3" vType="DEFAULT_VEHTYPE" speedFactor="1.01" vaporized="">
        <emissions CO_abs="2861.225539" CO2_abs="235478.895456" HC_abs="18.044827" PMx_abs="3.599739" NOx_abs="91.040648" fuel_abs="75107.146364" electricity_abs="0"/>
    </tripinfo>
    <tripinfo id="4.3" depart="45.00" departLane="right0D0_0" departPos="5.10" departSpeed="0.00" departDelay="0.00" arrival="170.00" arrivalLane="A1left1_1" arrivalPos="86.00" arrivalSpeed="13.21" duration="125.00" routeLength="1425.99" waitingTime="0.00" waitingCount="0" stopTime="0.00" timeLoss="22.87" rerouteNo="0" devices="tripinfo_4.3 emissions_4.3" vType="DEFAULT_VEHTYPE" speedFactor="1.02" vaporized="">
        <emissions CO_abs="5290.642200" CO2_abs="395898.308689" HC_abs="32.693586" PMx_abs="6.529442" NOx_abs="157.033391" fuel_abs="126273.421319" electricity_abs="0"/>
    </tripinfo>
    <tripinfo id="2.5" depart="50.00" departLane="top0A1_0" departPos="5.10" departSpeed="0.00" departDelay="0.00" arrival="171.00" arrivalLane="D0bottom3_0" arrivalPos="86.00" arrivalSpeed="13.22" duration="121.00" routeLength="1425.99" waitingTime="0.00" waitingCount="0" stopTime="0.00" timeLoss="18.65" rerouteNo="0" devices="tripinfo_2.5 emissions_2.5" vType="DEFAULT_VEHTYPE" speedFactor="1.02" vaporized="">
        <emissions CO_abs="4317.525850" CO2_abs="371323.837191" HC_abs="27.656745" PMx_abs="5.616587" NOx_abs="143.190335" fuel_abs="118435.515910" electricity_abs="0"/>
    </tripinfo>
    <tripinfo id="0.4" depart="40.00" departLane="left1A1_0" departPos="5.10" departSpeed="0.00" departDelay="0.00" arrival="174.00" arrivalLane="D0right0_1" arrivalPos="86.00" arrivalSpeed="14.08" duration="134.00" routeLength="1425.99" waitingTime="1.00" waitingCount="1" stopTime="0.00" timeLoss="34.24" rerouteNo="0" devices="tripinfo_0.4 emissions_0.4" vType="DEFAULT_VEHTYPE" speedFactor="1.04" vaporized="">
        <emissions CO_abs="6238.854918" CO2_abs="403956.032680" HC_abs="37.569047" PMx_abs="6.919903" NOx_abs="162.911407" fuel_abs="128843.700627" electricity_abs="0"/>
    </tripinfo>
    <tripinfo id="11.2" depart="40.00" departLane="bottom2C0_0" departPos="5.10" departSpeed="0.00" departDelay="0.00" arrival="174.00" arrivalLane="A1left1_0" arrivalPos="86.00" arrivalSpeed="11.62" duration="134.00" routeLength="1193.51" waitingTime="8.00" waitingCount="3" stopTime="0.00" timeLoss="37.98" rerouteNo="0" devices="tripinfo_11.2 emissions_11.2" vType="DEFAULT_VEHTYPE" speedFactor="0.90" vaporized="">
        <emissions CO_abs="6889.958829" CO2_abs="361535.086170" HC_abs="39.513863" PMx_abs="5.811698" NOx_abs="143.609967" fuel_abs="115314.601629" electricity_abs="0"/>
    </tripinfo>
    <tripinfo id="2.4" depart="40.00" departLane="top0A1_0" departPos="5.10" departSpeed="0.00" departDelay="0.00" arrival="176.00" arrivalLane="D0bottom3_0" arrivalPos="86.00" arrivalSpeed="12.13" duration="136.00" routeLength="1425.99" waitingTime="0.00" waitingCount="0" stopTime="0.00" timeLoss="16.82" rerouteNo="0" devices="tripinfo_2.4 emissions_2.4" vType="DEFAULT_VEHTYPE" speedFactor="0.88" vaporized="">
        <emissions CO_abs="4419.111295" CO2_abs="347818.678853" HC_abs="27.957464" PMx_abs="4.968761" NOx_abs="133.711971" fuel_abs="110938.994557" electricity_abs="0"/>
    </tripinfo>
    <tripinfo id="2.6" depart="60.00" departLane="top0A1_0" departPos="5.10" departSpeed="0.00" departDelay="0.00" arrival="177.00" arrivalLane="D0bottom3_0" arrivalPos="86.00" arrivalSpeed="14.12" duration="117.00" routeLength="1425.99" waitingTime="0.00" waitingCount="0" stopTime="0.00" timeLoss="17.23" rerouteNo="0" devices="tripinfo_2.6 emissions_2.6" vType="DEFAULT_VEHTYPE" speedFactor="1.04" vaporized="">
        <emissions CO_abs="4328.314331" CO2_abs="367907.349414" HC_abs="27.790771" PMx_abs="5.769293" NOx_abs="143.279511" fuel_abs="117345.623409" electricity_abs="0"/>
    </tripinfo>
    <tripinfo id="13.0" depart="0.00" departLane="top2C1_0" departPos="5.10" departSpeed="0.00" departDelay="0.00" arrival="179.00" arrivalLane="B0bottom1_0" arrivalPos="86.00" arrivalSpeed="10.53" duration="179.00" routeLength="925.99" waitingTime="85.00" waitingCount="1" stopTime="0.00" timeLoss="97.31" rerouteNo="0" devices="tripinfo_13.0 emissions_13.0" vType="DEFAULT_VEHTYPE" speedFactor="0.83" vaporized="">
        <emissions CO_abs="17358.033524" CO2_abs="449550.258683" HC_abs="89.453377" PMx_abs="8.851222" NOx_abs="189.917932" fuel_abs="143391.470589" electricity_abs="0"/>
    </tripinfo>
    <tripinfo id="6.4" depart="60.00" departLane="bottom3D0_0" departPos="5.10" departSpeed="0.00" departDelay="0.00" arrival="185.00" arrivalLane="A1top0_0" arrivalPos="86.00" arrivalSpeed="11.82" duration="125.00" routeLength="1425.99" waitingTime="0.00" waitingCount="0" stopTime="0.00" timeLoss="14.36" rerouteNo="0" devices="tripinfo_6.4 emissions_6.4" vType="DEFAULT_VEHTYPE" speedFactor="0.94" vaporized="">
        <emissions CO_abs="3854.472122" CO2_abs="345499.885902" HC_abs="25.020990" PMx_abs="4.903406" NOx_abs="131.330954" fuel_abs="110199.139828" electricity_abs="0"/>
    </tripinfo>
    <tripinfo id="8.1" depart="20.00" departLane="top1B1_0" departPos="5.10" departSpeed="0.00" departDelay="0.00" arrival="187.00" arrivalLane="D0right0_0" arrivalPos="86.00" arrivalSpeed="16.00" duration="167.00" routeLength="1193.51" waitingTime="67.00" waitingCount="2" stopTime="0.00" timeLoss="93.54" rerouteNo="0" devices="tripinfo_8.1 emissions_8.1" vType="DEFAULT_VEHTYPE" speedFactor="1.18" vaporized="">
        <emissions CO_abs="16147.989827" CO2_abs="532010.469363" HC_abs="85.402605" PMx_abs="10.626218" NOx_abs="223.085351" fuel_abs="169690.578924" electricity_abs="0"/>
    </tripinfo>
    <tripinfo id="0.5" depart="50.00" departLane="left1A1_0" departPos="5.10" departSpeed="0.00" departDelay="0.00" arrival="192.00" arrivalLane="D0right0_1" arrivalPos="86.00" arrivalSpeed="11.90" duration="142.00" routeLength="1425.99" waitingTime="5.00" waitingCount="1" stopTime="0.00" timeLoss="25.60" rerouteNo="0" devices="tripinfo_0.5 emissions_0.5" vType="DEFAULT_VEHTYPE" speedFactor="0.90" vaporized="">
        <emissions CO_abs="5975.101486" CO2_abs="387317.758576" HC_abs="36.048740" PMx_abs="6.140960" NOx_abs="153.218271" fuel_abs="123537.420319" electricity_abs="0"/>
    </tripinfo>
    <tripinfo id="12.4" depart="120.00" departLane="top1B1_0" departPos="5.10" departSpeed="0.00" departDelay="0.00" arrival="194.00" arrivalLane="C0bottom2_0" arrivalPos="86.00" arrivalSpeed="14.66" duration="74.00" routeLength="925.99" waitingTime="0.00" waitingCount="0" stopTime="0.00" timeLoss="9.53" rerouteNo="0" devices="tripinfo_12.4 emissions_12.4" vType="DEFAULT_VEHTYPE" speedFactor="1.06" vaporized="">
        <emissions CO_abs="2636.391885" CO2_abs="230341.959306" HC_abs="16.819620" PMx_abs="3.522554" NOx_abs="88.375738" fuel_abs="73468.609669" electricity_abs="0"/>
    </tripinfo>
    <tripinfo id="8.2" depart="40.00" departLane="top1B1_0" departPos="5.10" departSpeed="0.00" departDelay="0.00" arrival="195.00" arrivalLane="D0right0_0" arrivalPos="86.00" arrivalSpeed="10.81" duration="155.00" routeLength="1193.51" waitingTime="27.00" waitingCount="4" stopTime="0.00" timeLoss="53.82" rerouteNo="0" devices="tripinfo_8.2 emissions_8.2" vType="DEFAULT_VEHTYPE" speedFactor="0.85" vaporized="">
        <emissions CO_abs="9877.703452" CO2_abs="401598.011299" HC_abs="54.161376" PMx_abs="6.826042" NOx_abs="162.353583" fuel_abs="128093.988221" electricity_abs="0"/>
    </tripinfo>
    <tripinfo id="11.3" depart="60.00" departLane="bottom2C0_0" departPos="5.10" departSpeed="0.00" departDelay="0.00" arrival="195.00" arrivalLane="A1left1_0" arrivalPos="86.00" arrivalSpeed="12.79" duration="135.00" routeLength="1193.51" waitingTime="16.00" waitingCount="3" stopTime="0.00" timeLoss="47.03" rerouteNo="0" devices="tripinfo_11.3 emissions_11.3" vType="DEFAULT_VEHTYPE" speedFactor="0.99" vaporized="">
        <emissions CO_abs="8703.710683" CO2_abs="415638.963554" HC_abs="48.942326" PMx_abs="7.302412" NOx_abs="168.873830" fuel_abs="132571.250944" electricity_abs="0"/>
    </tripinfo>
    <tripinfo id="0.6" depart="60.00" departLane="left1A1_0" departPos="5.10" departSpeed="0.00" departDelay="0.00" arrival="200.00" arrivalLane="D0right0_1" arrivalPos="86.00" arrivalSpeed="14.34" duration="140.00" routeLength="1425.99" waitingTime="16.00" waitingCount="2" stopTime="0.00" timeLoss="43.82" rerouteNo="0" devices="tripinfo_0.6 emissions_0.6" vType="DEFAULT_VEHTYPE" speedFactor="1.08" vaporized="">
        <emissions CO_abs="8937.224270" CO2_abs="462480.391585" HC_abs="50.874588" PMx_abs="8.308226" NOx_abs="187.842615" fuel_abs="147511.022573" electricity_abs="0"/>
    </tripinfo>
    <tripinfo id="9.0" depart="3.00" departLane="top2C1_0" departPos="5.10" departSpeed="0.00" departDelay="3.00" arrival="201.00" arrivalLane="A0left0_0" arrivalPos="86.00" arrivalSpeed="12.03" duration="198.00" routeLength="1158.47" waitingTime="82.00" waitingCount="2" stopTime="0.00" timeLoss="105.75" rerouteNo="0" devices="tripinfo_9.0 emissions_9.0" vType="DEFAULT_VEHTYPE" speedFactor="0.93" vaporized="">
        <emissions CO_abs="18349.998734" CO2_abs="535241.683271" HC_abs="95.708970" PMx_abs="10.537487" NOx_abs="225.484684" fuel_abs="170722.696068" electricity_abs="0"/>
    </tripinfo>
    <tripinfo id="2.7" depart="70.00" departLane="top0A1_0" departPos="5.10" departSpeed="0.00" departDelay="0.00" arrival="205.00" arrivalLane="D0bottom3_0" arrivalPos="86.00" arrivalSpeed="13.28" duration="135.00" routeLength="1425.99" waitingTime="7.00" waitingCount="2" stopTime="0.00" timeLoss="30.88" rerouteNo="0" devices="tripinfo_2.7 emissions_2.7" vType="DEFAULT_VEHTYPE" speedFactor="1.01" vaporized="">
        <emissions CO_abs="6400.905757" CO2_abs="399092.256113" HC_abs="38.075825" PMx_abs="6.566923" NOx_abs="158.328996" fuel_abs="127292.879959" electricity_abs="0"/>
    </tripinfo>
    <tripinfo id="14.4" depart="123.00" departLane="bottom2C0_0" departPos="5.10" departSpeed="0.00" departDelay="3.00" arrival="205.00" arrivalLane="B1top1_0" arrivalPos="86.00" arrivalSpeed="14.12" duration="82.00" routeLength="925.99" waitingTime="2.00" waitingCount="1" stopTime="0.00" timeLoss="15.36" rerouteNo="0" devices="tripinfo_14.4 emissions_14.4" vType="DEFAULT_VEHTYPE" speedFactor="1.03" vaporized="">