<?xml version="1.0" encoding="UTF-8"?>

<!-- generated on 2024-10-27 17:47:52 by Eclipse SUMO GUI Version 1.12.0
<configuration xmlns:xsi="http://www.w3.org/2001/XMLSchema-instance" xsi:noNamespaceSchemaLocation="http://sumo.dlr.de/xsd/sumoConfiguration.xsd">

    <input>
        <net-file value="spider.net.xml"/>
        <route-files value="more_passenger.xml,more_motorcycle.xml,more_bus.xml,more_delivery.xml"/>
    </input>

    <output>
        <emission-output value="emissions.xml"/>
        <summary-output value="summary.xml"/>
        <tripinfo-output value="tripinfo.xml"/>
    </output>

    <time>
        <begin value="0"/>
        <end value="-1"/>
        <step-length value="1"/>
    </time>

    <random_number>
        <random value="false"/>
        <seed value="23423"/>
    </random_number>

    <gui_only>
        <quit-on-end value="false"/>
        <game value="false"/>
        <start value="false"/>
        <demo value="false"/>
        <disable-textures value="false"/>
        <tracker-interval value="1"/>
        <osg-view value="false"/>
        <gui-testing value="false"/>
        <gui-testing-debug value="false"/>
    </gui_only>

</configuration>
-->

<tripinfos xmlns:xsi="http://www.w3.org/2001/XMLSchema-instance" xsi:noNamespaceSchemaLocation="http://sumo.dlr.de/xsd/tripinfo_file.xsd">
    <tripinfo id="passenger1" depart="2.00" departLane="B5B4_0" departPos="5.10" departSpeed="0.00" departDelay="0.00" arrival="48.00" arrivalLane="B4C4_0" arrivalPos="230.73" arrivalSpeed="12.65" duration="46.00" routeLength="519.91" waitingTime="0.00" waitingCount="0" stopTime="0.00" timeLoss="5.56" rerouteNo="0" devices="tripinfo_passenger1 routing_passenger1 emissions_passenger1" vType="passenger_passenger" speedFactor="0.94" vaporized="">
        <emissions CO_abs="1703.069659" CO2_abs="129687.202883" HC_abs="10.774319" PMx_abs="2.060640" NOx_abs="51.189749" fuel_abs="55.747120" electricity_abs="0"/>
    </tripinfo>
    <tripinfo id="motorcycle1" depart="4.00" departLane="B5B4_0" departPos="2.30" departSpeed="0.00" departDelay="1.00" arrival="50.00" arrivalLane="B4C4_0" arrivalPos="230.73" arrivalSpeed="12.59" duration="46.00" routeLength="522.71" waitingTime="0.00" waitingCount="0" stopTime="0.00" timeLoss="10.69" rerouteNo="0" devices="tripinfo_motorcycle1 routing_motorcycle1 emissions_motorcycle1" vType="motorcycle_motorcycle" speedFactor="1.08" vaporized="">
        <emissions CO_abs="5815.209253" CO2_abs="175582.350327" HC_abs="26.966466" PMx_abs="9.427660" NOx_abs="37.496788" fuel_abs="75.484459" electricity_abs="0"/>
    </tripinfo>
    <tripinfo id="passenger13" depart="26.00" departLane="B2B3_0" departPos="5.10" departSpeed="0.00" departDelay="0.00" arrival="51.00" arrivalLane="B2B3_0" arrivalPos="280.81" arrivalSpeed="12.33" duration="25.00" routeLength="275.71" waitingTime="0.00" waitingCount="0" stopTime="0.00" timeLoss="3.78" rerouteNo="1" devices="tripinfo_passenger13 routing_passenger13 emissions_passenger13" vType="passenger_passenger" speedFactor="0.94" vaporized="">
        <emissions CO_abs="1092.210881" CO2_abs="71133.943630" HC_abs="6.634562" PMx_abs="1.189893" NOx_abs="28.571315" fuel_abs="30.577549" electricity_abs="0"/>
    </tripinfo>
    <tripinfo id="motorcycle13" depart="39.00" departLane="B2B3_0" departPos="2.30" departSpeed="0.00" departDelay="0.00" arrival="63.00" arrivalLane="B2B3_0" arrivalPos="280.81" arrivalSpeed="11.57" duration="24.00" routeLength="278.51" waitingTime="0.00" waitingCount="0" stopTime="0.00" timeLoss="3.33" rerouteNo="1" devices="tripinfo_motorcycle13 routing_motorcycle13 emissions_motorcycle13" vType="motorcycle_motorcycle" speedFactor="0.99" vaporized="">
        <emissions CO_abs="3209.645018" CO2_abs="97947.907681" HC_abs="14.960928" PMx_abs="5.265363" NOx_abs="20.833545" fuel_abs="42.108720" electricity_abs="0"/>
    </tripinfo>
    <tripinfo id="passenger0" depart="0.00" departLane="C5B5_0" departPos="5.10" departSpeed="0.00" departDelay="0.00" arrival="66.00" arrivalLane="B1B5_0" arrivalPos="280.81" arrivalSpeed="14.55" duration="66.00" routeLength="803.30" waitingTime="0.00" waitingCount="0" stopTime="0.00" timeLoss="9.59" rerouteNo="1" devices="tripinfo_passenger0 routing_passenger0 emissions_passenger0" vType="passenger_passenger" speedFactor="1.06" vaporized="">
        <emissions CO_abs="2566.395598" CO2_abs="195032.501296" HC_abs="16.223798" PMx_abs="3.367176" NOx_abs="78.432799" fuel_abs="83.835952" electricity_abs="0"/>
    </tripinfo>
    <tripinfo id="motorcycle0" depart="2.00" departLane="C5B5_0" departPos="2.30" departSpeed="0.00" departDelay="2.00" arrival="74.00" arrivalLane="B1B5_0" arrivalPos="280.81" arrivalSpeed="12.85" duration="72.00" routeLength="806.10" waitingTime="0.00" waitingCount="0" stopTime="0.00" timeLoss="12.83" rerouteNo="1" devices="tripinfo_motorcycle0 routing_motorcycle0 emissions_motorcycle0" vType="motorcycle_motorcycle" speedFactor="1.01" vaporized="">
        <emissions CO_abs="7211.335921" CO2_abs="236081.771260" HC_abs="33.893461" PMx_abs="11.847446" NOx_abs="51.204776" fuel_abs="101.493294" electricity_abs="0"/>
    </tripinfo>
    <tripinfo id="delivery1" depart="31.00" departLane="B5B4_0" departPos="6.60" departSpeed="0.00" departDelay="1.00" arrival="79.00" arrivalLane="B4C4_0" arrivalPos="230.73" arrivalSpeed="11.45" duration="48.00" routeLength="518.41" waitingTime="0.00" waitingCount="0" stopTime="0.00" timeLoss="6.14" rerouteNo="0" devices="tripinfo_delivery1 routing_delivery1 emissions_delivery1" vType="delivery_delivery" speedFactor="0.92" vaporized="">
        <emissions CO_abs="6010.161987" CO2_abs="123218.948390" HC_abs="286.105112" PMx_abs="31.225659" NOx_abs="0" fuel_abs="52.626801" electricity_abs="0"/>
    </tripinfo>
    <tripinfo id="bus0" depart="6.00" departLane="C5B5_0" departPos="12.10" departSpeed="0.00" departDelay="6.00" arrival="80.00" arrivalLane="B1B5_0" arrivalPos="280.81" arrivalSpeed="13.87" duration="74.00" routeLength="796.30" waitingTime="0.00" waitingCount="0" stopTime="0.00" timeLoss="14.48" rerouteNo="1" devices="tripinfo_bus0 routing_bus0 emissions_bus0" vType="bus_bus" speedFactor="1.00" vaporized="">
        <emissions CO_abs="1714.219421" CO2_abs="1086109.581761" HC_abs="351.667619" PMx_abs="183.456914" NOx_abs="8405.995761" fuel_abs="463.208150" electricity_abs="0"/>
    </tripinfo>
    <tripinfo id="passenger8" depart="16.00" departLane="B4C4_0" departPos="5.10" departSpeed="0.00" departDelay="0.00" arrival="80.00" arrivalLane="C4C5_0" arrivalPos="560.16" arrivalSpeed="14.52" duration="64.00" routeLength="805.03" waitingTime="0.00" waitingCount="0" stopTime="0.00" timeLoss="6.83" rerouteNo="0" devices="tripinfo_passenger8 routing_passenger8 emissions_passenger8" vType="passenger_passenger" speedFactor="1.05" vaporized="">
        <emissions CO_abs="2206.521745" CO2_abs="184224.708216" HC_abs="14.264309" PMx_abs="2.975256" NOx_abs="72.453879" fuel_abs="79.190305" electricity_abs="0"/>
    </tripinfo>
    <tripinfo id="delivery0" depart="11.00" departLane="C5B5_0" departPos="6.60" departSpeed="0.00" departDelay="11.00" arrival="83.00" arrivalLane="B1B5_0" arrivalPos="280.81" arrivalSpeed="13.96" duration="72.00" routeLength="801.80" waitingTime="0.00" waitingCount="0" stopTime="0.00" timeLoss="13.24" rerouteNo="1" devices="tripinfo_delivery0 routing_delivery0 emissions_delivery0" vType="delivery_delivery" speedFactor="1.02" vaporized="">
        <emissions CO_abs="9844.492435" CO2_abs="208432.553624" HC_abs="461.002501" PMx_abs="52.645452" NOx_abs="0" fuel_abs="89.010474" electricity_abs="0"/>
    </tripinfo>
    <tripinfo id="passenger6" depart="12.00" departLane="B1B5_0" departPos="5.10" departSpeed="0.00" departDelay="0.00" arrival="89.00" arrivalLane="B4B3_0" arrivalPos="280.81" arrivalSpeed="4.69" duration="77.00" routeLength="853.79" waitingTime="2.00" waitingCount="1" stopTime="0.00" timeLoss="19.52" rerouteNo="1" devices="tripinfo_passenger6 routing_passenger6 emissions_passenger6" vType="passenger_passenger" speedFactor="1.09" vaporized="">
        <emissions CO_abs="3214.675588" CO2_abs="201982.165908" HC_abs="19.387534" PMx_abs="3.650713" NOx_abs="82.761018" fuel_abs="86.823494" electricity_abs="0"/>
    </tripinfo>
    <tripinfo id="motorcycle8" depart="24.00" departLane="B4C4_0" departPos="2.30" departSpeed="0.00" departDelay="0.00" arrival="92.00" arrivalLane="C4C5_0" arrivalPos="560.16" arrivalSpeed="12.32" duration="68.00" routeLength="807.83" waitingTime="0.00" waitingCount="0" stopTime="0.00" timeLoss="8.90" rerouteNo="0" devices="tripinfo_motorcycle8 routing_motorcycle8 emissions_motorcycle8" vType="motorcycle_motorcycle" speedFactor="1.01" vaporized="">
        <emissions CO_abs="5904.180625" CO2_abs="207934.267832" HC_abs="28.223786" PMx_abs="9.930967" NOx_abs="45.400863" fuel_abs="89.392186" electricity_abs="0"/>
    </tripinfo>
    <tripinfo id="motorcycle6" depart="18.00" departLane="B1B5_0" departPos="2.30" departSpeed="0.00" departDelay="0.00" arrival="104.00" arrivalLane="B4B3_0" arrivalPos="280.81" arrivalSpeed="9.96" duration="86.00" routeLength="856.59" waitingTime="0.00" waitingCount="0" stopTime="0.00" timeLoss="13.23" rerouteNo="1" devices="tripinfo_motorcycle6 routing_motorcycle6 emissions_motorcycle6" vType="motorcycle_motorcycle" speedFactor="0.87" vaporized="">
        <emissions CO_abs="7331.872014" CO2_abs="236985.245537" HC_abs="34.109562" PMx_abs="11.781098" NOx_abs="51.891100" fuel_abs="101.881861" electricity_abs="0"/>
    </tripinfo>
    <tripinfo id="bus1" depart="60.00" departLane="B5B4_0" departPos="12.10" departSpeed="0.00" departDelay="0.00" arrival="109.00" arrivalLane="B4C4_0" arrivalPos="230.73" arrivalSpeed="13.88" duration="49.00" routeLength="512.91" waitingTime="0.00" waitingCount="0" stopTime="0.00" timeLoss="11.78" rerouteNo="0" devices="tripinfo_bus1 routing_bus1 emissions_bus1" vType="bus_bus" speedFactor="1.00" vaporized="">
        <emissions CO_abs="1275.164417" CO2_abs="808830.629239" HC_abs="257.934820" PMx_abs="136.257318" NOx_abs="6262.033189" fuel_abs="344.949660" electricity_abs="0"/>
    </tripinfo>
    <tripinfo id="passenger20" depart="40.00" departLane="D1C1_0" departPos="5.10" departSpeed="0.00" departDelay="0.00" arrival="114.00" arrivalLane="B1C1_0" arrivalPos="230.73" arrivalSpeed="10.98" duration="74.00" routeLength="713.67" waitingTime="0.00" waitingCount="0" stopTime="0.00" timeLoss="10.40" rerouteNo="1" devices="tripinfo_passenger20 routing_passenger20 emissions_passenger20" vType="passenger_passenger" speedFactor="0.83" vaporized="">
        <emissions CO_abs="2465.616305" CO2_abs="150795.704856" HC_abs="14.715286" PMx_abs="2.403326" NOx_abs="60.184034" fuel_abs="64.821125" electricity_abs="0"/>
    </tripinfo>
    <tripinfo id="motorcycle20" depart="60.00" departLane="D1C1_0" departPos="2.30" departSpeed="0.00" departDelay="0.00" arrival="117.00" arrivalLane="B1C1_0" arrivalPos="230.73" arrivalSpeed="15.04" duration="57.00" routeLength="716.47" waitingTime="0.00" waitingCount="0" stopTime="0.00" timeLoss="11.36" rerouteNo="1" devices="tripinfo_motorcycle20 routing_motorcycle20 emissions_motorcycle20" vType="motorcycle_motorcycle" speedFactor="1.15" vaporized="">
        <emissions CO_abs="7958.409351" CO2_abs="250452.559889" HC_abs="37.452445" PMx_abs="13.258392" NOx_abs="53.198232" fuel_abs="107.671591" electricity_abs="0"/>
    </tripinfo>
    <tripinfo id="passenger24" depart="48.00" departLane="C5B5_0" departPos="5.10" departSpeed="0.00" departDelay="0.00" arrival="121.00" arrivalLane="C1D1_0" arrivalPos="229.64" arrivalSpeed="15.36" duration="73.00" routeLength="1004.67" waitingTime="0.00" waitingCount="0" stopTime="0.00" timeLoss="8.14" rerouteNo="1" devices="tripinfo_passenger24 routing_passenger24 emissions_passenger24" vType="passenger_passenger" speedFactor="1.13" vaporized="">
        <emissions CO_abs="2652.051668" CO2_abs="220496.026766" HC_abs="17.228504" PMx_abs="3.828726" NOx_abs="88.184882" fuel_abs="94.781428" electricity_abs="0"/>
    </tripinfo>
    <tripinfo id="passenger18" depart="36.00" departLane="D3C3_0" departPos="5.10" departSpeed="0.00" departDelay="0.00" arrival="129.00" arrivalLane="C4D4_0" arrivalPos="229.64" arrivalSpeed="6.54" duration="93.00" routeLength="1047.68" waitingTime="4.00" waitingCount="1" stopTime="0.00" timeLoss="15.02" rerouteNo="1" devices="tripinfo_passenger18 routing_passenger18 emissions_passenger18" vType="passenger_passenger" speedFactor="0.98" vaporized="">
        <emissions CO_abs="2748.447327" CO2_abs="210422.629324" HC_abs="17.432605" PMx_abs="3.444310" NOx_abs="83.506697" fuel_abs="90.451766" electricity_abs="0"/>
    </tripinfo>
    <tripinfo id="passenger3" depart="6.00" departLane="D4C4_0" departPos="5.10" departSpeed="0.00" departDelay="0.00" arrival="140.00" arrivalLane="B2B3_0" arrivalPos="280.81" arrivalSpeed="4.16" duration="134.00" routeLength="1347.06" waitingTime="2.00" waitingCount="2" stopTime="0.00" timeLoss="22.21" rerouteNo="1" devices="tripinfo_passenger3 routing_passenger3 emissions_passenger3" vType="passenger_passenger" speedFactor="0.89" vaporized="">
        <emissions CO_abs="4049.567454" CO2_abs="281650.203489" HC_abs="24.967942" PMx_abs="4.419756" NOx_abs="111.325700" fuel_abs="121.070008" electricity_abs="0"/>
    </tripinfo>
    <tripinfo id="passenger21" depart="42.00" departLane="B4C4_0" departPos="5.10" departSpeed="0.00" departDelay="0.00" arrival="140.00" arrivalLane="B5C5_0" arrivalPos="230.73" arrivalSpeed="11.66" duration="98.00" routeLength="992.70" waitingTime="0.00" waitingCount="0" stopTime="0.00" timeLoss="14.08" rerouteNo="1" devices="tripinfo_passenger21 routing_passenger21 emissions_passenger21" vType="passenger_passenger" speedFactor="0.87" vaporized="">
        <emissions CO_abs="3714.050165" CO2_abs="239616.511085" HC_abs="22.497335" PMx_abs="3.996422" NOx_abs="96.629339" fuel_abs="103.001255" electricity_abs="0"/>
    </tripinfo>
    <tripinfo id="passenger31" depart="62.00" departLane="C4B4_0" departPos="5.10" departSpeed="0.00" departDelay="0.00" arrival="144.00" arrivalLane="C5D5_0" arrivalPos="229.64" arrivalSpeed="13.25" duration="82.00" routeLength="1004.67" waitingTime="0.00" waitingCount="0" stopTime="0.00" timeLoss="9.55" rerouteNo="1" devices="tripinfo_passenger31 routing_passenger31 emissions_passenger31" vType="passenger_passenger" speedFactor="1.02" vaporized="">
        <emissions CO_abs="2845.906151" CO2_abs="229235.873067" HC_abs="18.290666" PMx_abs="3.858899" NOx_abs="91.544650" fuel_abs="98.538495" electricity_abs="0"/>
    </tripinfo>
    <tripinfo id="motorcycle18" depart="57.00" departLane="D3C3_0" departPos="2.30" departSpeed="0.00" departDelay="3.00" arrival="145.00" arrivalLane="C4D4_0" arrivalPos="229.64" arrivalSpeed="10.88" duration="88.00" routeLength="1050.48" waitingTime="0.00" waitingCount="0" stopTime="0.00" timeLoss="13.09" rerouteNo="1" devices="tripinfo_motorcycle18 routing_motorcycle18 emissions_motorcycle18" vType="motorcycle_motorcycle" speedFactor="1.02" vaporized="">
        <emissions CO_abs="9415.141100" CO2_abs="311742.937894" HC_abs="44.602016" PMx_abs="15.747839" NOx_abs="67.111750" fuel_abs="134.020568" electricity_abs="0"/>
    </tripinfo>
    <tripinfo id="motorcycle3" depart="9.00" departLane="D4C4_0" departPos="2.30" departSpeed="0.00" departDelay="0.00" arrival="146.00" arrivalLane="B2B3_0" arrivalPos="280.81" arrivalSpeed="14.78" duration="137.00" routeLength="1349.86" waitingTime="6.00" waitingCount="2" stopTime="0.00" timeLoss="43.90" rerouteNo="1" devices="tripinfo_motorcycle3 routing_motorcycle3 emissions_motorcycle3" vType="motorcycle_motorcycle" speedFactor="1.06" vaporized="">
        <emissions CO_abs="16685.343947" CO2_abs="484206.592047" HC_abs="76.918287" PMx_abs="26.924263" NOx_abs="102.496781" fuel_abs="208.165407" electricity_abs="0"/>
    </tripinfo>
    <tripinfo id="motorcycle21" depart="63.00" departLane="B4C4_0" departPos="2.30" departSpeed="0.00" departDelay="0.00" arrival="147.00" arrivalLane="B5C5_0" arrivalPos="230.73" arrivalSpeed="14.05" duration="84.00" routeLength="995.50" waitingTime="0.00" waitingCount="0" stopTime="0.00" timeLoss="12.47" rerouteNo="1" devices="tripinfo_motorcycle21 routing_motorcycle21 emissions_motorcycle21" vType="motorcycle_motorcycle" speedFactor="1.03" vaporized="">
        <emissions CO_abs="9893.820093" CO2_abs="313249.095381" HC_abs="46.469360" PMx_abs="16.384460" NOx_abs="66.952354" fuel_abs="134.668383" electricity_abs="0"/>
    </tripinfo>
    <tripinfo id="passenger34" depart="69.00" departLane="C1B1_0" departPos="5.10" departSpeed="0.00" departDelay="1.00" arrival="150.00" arrivalLane="B5B4_0" arrivalPos="280.81" arrivalSpeed="6.59" duration="81.00" routeLength="808.95" waitingTime="0.00" waitingCount="0" stopTime="0.00" timeLoss="27.28" rerouteNo="1" devices="tripinfo_passenger34 routing_passenger34 emissions_passenger34" vType="passenger_passenger" speedFactor="1.10" vaporized="">
        <emissions CO_abs="3882.453675" CO2_abs="226532.574190" HC_abs="22.997868" PMx_abs="4.157577" NOx_abs="93.476673" fuel_abs="97.376777" electricity_abs="0"/>
    </tripinfo>
    <tripinfo id="passenger32" depart="64.00" departLane="D3D2_0" departPos="5.10" departSpeed="0.00" departDelay="0.00" arrival="155.00" arrivalLane="D2C2_0" arrivalPos="229.64" arrivalSpeed="13.18" duration="91.00" routeLength="1090.29" waitingTime="0.00" waitingCount="0" stopTime="0.00" timeLoss="8.57" rerouteNo="0" devices="tripinfo_passenger32 routing_passenger32 emissions_passenger32" vType="passenger_passenger" speedFactor="0.97" vaporized="">
        <emissions CO_abs="2537.942938" CO2_abs="219682.540695" HC_abs="16.670644" PMx_abs="3.397819" NOx_abs="85.667104" fuel_abs="94.432254" electricity_abs="0"/>
    </tripinfo>
    <tripinfo id="passenger22" depart="44.00" departLane="B2B1_0" departPos="5.10" departSpeed="0.00" departDelay="0.00" arrival="156.00" arrivalLane="B4C4_0" arrivalPos="230.73" arrivalSpeed="12.39" duration="112.00" routeLength="1097.99" waitingTime="7.00" waitingCount="1" stopTime="0.00" timeLoss="24.30" rerouteNo="1" devices="tripinfo_passenger22 routing_passenger22 emissions_passenger22" vType="passenger_passenger" speedFactor="0.92" vaporized="">
        <emissions CO_abs="4351.556909" CO2_abs="256563.155726" HC_abs="25.798120" PMx_abs="4.325924" NOx_abs="103.415110" fuel_abs="110.286205" electricity_abs="0"/>
    </tripinfo>
    <tripinfo id="motorcycle24" depart="72.00" departLane="C5B5_0" departPos="2.30" departSpeed="0.00" departDelay="0.00" arrival="156.00" arrivalLane="C1D1_0" arrivalPos="229.64" arrivalSpeed="11.59" duration="84.00" routeLength="1007.47" waitingTime="0.00" waitingCount="0" stopTime="0.00" timeLoss="11.19" rerouteNo="1" devices="tripinfo_motorcycle24 routing_motorcycle24 emissions_motorcycle24" vType="motorcycle_motorcycle" speedFactor="1.01" vaporized="">
        <emissions CO_abs="8424.501077" CO2_abs="281535.554205" HC_abs="39.975393" PMx_abs="14.118377" NOx_abs="60.710168" fuel_abs="121.034164" electricity_abs="0"/>
    </tripinfo>
    <tripinfo id="passenger58" depart="116.00" departLane="B5C5_0" departPos="5.10" departSpeed="0.00" departDelay="0.00" arrival="157.00" arrivalLane="C5B5_0" arrivalPos="230.73" arrivalSpeed="13.71" duration="41.00" routeLength="463.66" waitingTime="0.00" waitingCount="0" stopTime="0.00" timeLoss="6.58" rerouteNo="0" devices="tripinfo_passenger58 routing_passenger58 emissions_passenger58" vType="passenger_passenger" speedFactor="1.02" vaporized="">
        <emissions CO_abs="2013.688730" CO2_abs="131627.295603" HC_abs="12.248296" PMx_abs="2.367664" NOx_abs="53.888684" fuel_abs="56.580886" electricity_abs="0"/>
    </tripinfo>
    <tripinfo id="passenger12" depart="24.00" departLane="D5C5_0" departPos="5.10" departSpeed="0.00" departDelay="0.00" arrival="160.00" arrivalLane="C1C2_0" arrivalPos="560.16" arrivalSpeed="10.94" duration="136.00" routeLength="1388.78" waitingTime="7.00" waitingCount="1" stopTime="0.00" timeLoss="21.83" rerouteNo="1" devices="tripinfo_passenger12 routing_passenger12 emissions_passenger12" vType="passenger_passenger" speedFactor="0.88" vaporized="">
        <emissions CO_abs="3471.361222" CO2_abs="263522.562734" HC_abs="21.888655" PMx_abs="3.926274" NOx_abs="102.521490" fuel_abs="113.277748" electricity_abs="0"/>
    </tripinfo>
    <tripinfo id="motorcycle12" depart="36.00" departLane="D5C5_0" departPos="2.30" departSpeed="0.00" departDelay="0.00" arrival="162.00" arrivalLane="C1C2_0" arrivalPos="560.16" arrivalSpeed="11.29" duration="126.00" routeLength="1391.58" waitingTime="2.00" waitingCount="1" stopTime="0.00" timeLoss="25.55" rerouteNo="1" devices="tripinfo_motorcycle12 routing_motorcycle12 emissions_motorcycle12" vType="motorcycle_motorcycle" speedFactor="1.00" vaporized="">
        <emissions CO_abs="11553.229099" CO2_abs="387723.946211" HC_abs="54.563435" PMx_abs="19.089398" NOx_abs="84.399553" fuel_abs="166.685193" electricity_abs="0"/>
    </tripinfo>
    <tripinfo id="passenger35" depart="71.00" departLane="B4B5_0" departPos="5.10" departSpeed="0.00" departDelay="1.00" arrival="163.00" arrivalLane="D5C5_0" arrivalPos="229.64" arrivalSpeed="12.29" duration="92.00" routeLength="1002.13" waitingTime="0.00" waitingCount="0" stopTime="0.00" timeLoss="10.16" rerouteNo="1" devices="tripinfo_passenger35 routing_passenger35 emissions_passenger35" vType="passenger_passenger" speedFactor="0.90" vaporized="">
        <emissions CO_abs="2739.976086" CO2_abs="210398.914579" HC_abs="17.347258" PMx_abs="3.208378" NOx_abs="82.340715" fuel_abs="90.441888" electricity_abs="0"/>
    </tripinfo>
    <tripinfo id="passenger39" depart="80.00" departLane="B5B4_0" departPos="5.10" departSpeed="0.00" departDelay="2.00" arrival="167.00" arrivalLane="B5B1_0" arrivalPos="280.81" arrivalSpeed="13.82" duration="87.00" routeLength="859.20" waitingTime="11.00" waitingCount="1" stopTime="0.00" timeLoss="25.36" rerouteNo="1" devices="tripinfo_passenger39 routing_passenger39 emissions_passenger39" vType="passenger_passenger" speedFactor="1.04" vaporized="">
        <emissions CO_abs="3928.148396" CO2_abs="229298.543461" HC_abs="23.257025" PMx_abs="4.062359" NOx_abs="93.258638" fuel_abs="98.566017" electricity_abs="0"/>
    </tripinfo>
    <tripinfo id="passenger4" depart="8.00" departLane="C2C3_0" departPos="5.10" departSpeed="0.00" departDelay="0.00" arrival="168.00" arrivalLane="B1B5_0" arrivalPos="280.81" arrivalSpeed="12.01" duration="160.00" routeLength="1677.39" waitingTime="4.00" waitingCount="1" stopTime="0.00" timeLoss="28.90" rerouteNo="1" devices="tripinfo_passenger4 routing_passenger4 emissions_passenger4" vType="passenger_passenger" speedFactor="0.94" vaporized="">
        <emissions CO_abs="5088.574893" CO2_abs="363206.341142" HC_abs="31.655774" PMx_abs="5.998753" NOx_abs="145.193915" fuel_abs="156.127146" electricity_abs="0"/>
    </tripinfo>
    <tripinfo id="passenger5" depart="10.00" departLane="B4B5_0" departPos="5.10" departSpeed="0.00" departDelay="0.00" arrival="170.00" arrivalLane="C3C4_0" arrivalPos="560.16" arrivalSpeed="11.43" duration="160.00" routeLength="1676.46" waitingTime="0.00" waitingCount="0" stopTime="0.00" timeLoss="15.94" rerouteNo="1" devices="tripinfo_passenger5 routing_passenger5 emissions_passenger5" vType="passenger_passenger" speedFactor="0.86" vaporized="">
        <emissions CO_abs="4905.874401" CO2_abs="351162.780063" HC_abs="30.470414" PMx_abs="5.461349" NOx_abs="138.668921" fuel_abs="150.950581" electricity_abs="0"/>
    </tripinfo>
    <tripinfo id="passenger53" depart="108.00" departLane="B2C2_0" departPos="5.10" departSpeed="0.00" departDelay="2.00" arrival="171.00" arrivalLane="C2C3_0" arrivalPos="560.16" arrivalSpeed="15.60" duration="63.00" routeLength="805.03" waitingTime="1.00" waitingCount="1" stopTime="0.00" timeLoss="11.12" rerouteNo="0" devices="tripinfo_passenger53 routing_passenger53 emissions_passenger53" vType="passenger_passenger" speedFactor="1.14" vaporized="">
        <emissions CO_abs="2725.638800" CO2_abs="193431.232440" HC_abs="16.865825" PMx_abs="3.530693" NOx_abs="78.821835" fuel_abs="83.147504" electricity_abs="0"/>
    </tripinfo>
    <tripinfo id="motorcycle4" depart="12.00" departLane="C2C3_0" departPos="2.30" departSpeed="0.00" departDelay="0.00" arrival="172.00" arrivalLane="B1B5_0" arrivalPos="280.81" arrivalSpeed="12.66" duration="160.00" routeLength="1680.19" waitingTime="4.00" waitingCount="1" stopTime="0.00" timeLoss="30.56" rerouteNo="1" devices="tripinfo_motorcycle4 routing_motorcycle4 emissions_motorcycle4" vType="motorcycle_motorcycle" speedFactor="0.96" vaporized="">
        <emissions CO_abs="14983.092056" CO2_abs="469786.239108" HC_abs="69.786271" PMx_abs="24.334338" NOx_abs="101.345845" fuel_abs="201.965061" electricity_abs="0"/>
    </tripinfo>
    <tripinfo id="motorcycle31" depart="94.00" departLane="C4B4_0" departPos="2.30" departSpeed="0.00" departDelay="1.00" arrival="174.00" arrivalLane="C5D5_0" arrivalPos="229.64" arrivalSpeed="10.14" duration="80.00" routeLength="1007.47" waitingTime="0.00" waitingCount="0" stopTime="0.00" timeLoss="14.55" rerouteNo="1" devices="tripinfo_motorcycle31 routing_motorcycle31 emissions_motorcycle31" vType="motorcycle_motorcycle" speedFactor="1.12" vaporized="">
        <emissions CO_abs="11746.064967" CO2_abs="348828.048330" HC_abs="54.810869" PMx_abs="19.451061" NOx_abs="73.059592" fuel_abs="149.964592" electricity_abs="0"/>
    </tripinfo>
    <tripinfo id="passenger33" depart="66.00" departLane="B4C4_0" departPos="5.10" departSpeed="0.00" departDelay="0.00" arrival="175.00" arrivalLane="B1B5_0" arrivalPos="280.81" arrivalSpeed="15.41" duration="109.00" routeLength="1336.71" waitingTime="0.00" waitingCount="0" stopTime="0.00" timeLoss="24.38" rerouteNo="1" devices="tripinfo_passenger33 routing_passenger33 emissions_passenger33" vType="passenger_passenger" speedFactor="1.18" vaporized="">
        <emissions CO_abs="4562.283925" CO2_abs="339453.479933" HC_abs="28.592753" PMx_abs="5.968640" NOx_abs="137.005083" fuel_abs="145.916140" electricity_abs="0"/>
    </tripinfo>
    <tripinfo id="passenger65" depart="130.00" departLane="C1B1_0" departPos="5.10" departSpeed="0.00" departDelay="0.00" arrival="179.00" arrivalLane="B1C1_0" arrivalPos="230.73" arrivalSpeed="14.14" duration="49.00" routeLength="463.67" waitingTime="6.00" waitingCount="1" stopTime="0.00" timeLoss="15.52" rerouteNo="0" devices="tripinfo_passenger65 routing_passenger65 emissions_passenger65" vType="passenger_passenger" speedFactor="1.02" vaporized="">
        <emissions CO_abs="2389.451126" CO2_abs="138490.448314" HC_abs="14.149191" PMx_abs="2.543737" NOx_abs="57.165667" fuel_abs="59.531203" electricity_abs="0"/>
    </tripinfo>
    <tripinfo id="passenger79" depart="158.00" departLane="B4C4_0" departPos="5.10" departSpeed="0.00" departDelay="0.00" arrival="179.00" arrivalLane="B4C4_0" arrivalPos="230.73" arrivalSpeed="12.63" duration="21.00" routeLength="225.63" waitingTime="0.00" waitingCount="0" stopTime="0.00" timeLoss="3.68" rerouteNo="1" devices="tripinfo_passenger79 routing_passenger79 emissions_passenger79" vType="passenger_passenger" speedFactor="0.97" vaporized="">
        <emissions CO_abs="1038.064152" CO2_abs="63381.370085" HC_abs="6.215925" PMx_abs="1.122570" NOx_abs="25.931960" fuel_abs="27.244990" electricity_abs="0"/>
    </tripinfo>
    <tripinfo id="motorcycle5" depart="15.00" departLane="B4B5_0" departPos="2.30" departSpeed="0.00" departDelay="0.00" arrival="179.00" arrivalLane="C3C4_0" arrivalPos="560.16" arrivalSpeed="12.62" duration="164.00" routeLength="1679.26" waitingTime="0.00" waitingCount="0" stopTime="0.00" timeLoss="30.08" rerouteNo="1" devices="tripinfo_motorcycle5 routing_motorcycle5 emissions_motorcycle5" vType="motorcycle_motorcycle" speedFactor="0.93" vaporized="">
        <emissions CO_abs="15694.676156" CO2_abs="508256.333305" HC_abs="73.338062" PMx_abs="25.494925" NOx_abs="110.659961" fuel_abs="218.503426" electricity_abs="0"/>
    </tripinfo>
    <tripinfo id="motorcycle34" depart="102.00" departLane="C1B1_0" departPos="2.30" departSpeed="0.00" departDelay="0.00" arrival="181.00" arrivalLane="B5B4_0" arrivalPos="280.81" arrivalSpeed="7.83" duration="79.00" routeLength="811.75" waitingTime="0.00" waitingCount="0" stopTime="0.00" timeLoss="16.83" rerouteNo="1" devices="tripinfo_motorcycle34 routing_motorcycle34 emissions_motorcycle34" vType="motorcycle_motorcycle" speedFactor="0.95" vaporized="">
        <emissions CO_abs="7827.081435" CO2_abs="243322.410494" HC_abs="36.195861" PMx_abs="12.497830" NOx_abs="52.900815" fuel_abs="104.606359" electricity_abs="0"/>
    </tripinfo>
    <tripinfo id="passenger23" depart="46.00" departLane="B2C2_0" departPos="5.10" departSpeed="0.00" departDelay="0.00" arrival="183.00" arrivalLane="B5B4_0" arrivalPos="280.81" arrivalSpeed="8.52" duration="137.00" routeLength="1336.02" waitingTime="10.00" waitingCount="1" stopTime="0.00" timeLoss="32.54" rerouteNo="1" devices="tripinfo_passenger23 routing_passenger23 emissions_passenger23" vType="passenger_passenger" speedFactor="0.95" vaporized="">
        <emissions CO_abs="5687.495994" CO2_abs="335626.839022" HC_abs="33.759816" PMx_abs="5.850884" NOx_abs="136.690424" fuel_abs="144.272195" electricity_abs="0"/>
    </tripinfo>
    <tripinfo id="passenger26" depart="52.00" departLane="B5B4_0" departPos="5.10" departSpeed="0.00" departDelay="0.00" arrival="185.00" arrivalLane="D4D5_0" arrivalPos="854.05" arrivalSpeed="15.28" duration="133.00" routeLength="1648.55" waitingTime="13.00" waitingCount="1" stopTime="0.00" timeLoss="31.17" rerouteNo="1" devices="tripinfo_passenger26 routing_passenger26 emissions_passenger26" vType="passenger_passenger" speedFactor="1.18" vaporized="">
        <emissions CO_abs="5713.854281" CO2_abs="385207.829030" HC_abs="35.028761" PMx_abs="6.803920" NOx_abs="154.233928" fuel_abs="165.584510" electricity_abs="0"/>
    </tripinfo>