<?xml version="1.0" encoding="UTF-8"?>

<!-- generated on 2024-10-27 20:36:36 by Eclipse SUMO GUI Version 1.12.0
<configuration xmlns:xsi="http://www.w3.org/2001/XMLSchema-instance" xsi:noNamespaceSchemaLocation="http://sumo.dlr.de/xsd/sumoConfiguration.xsd">

    <input>
        <net-file value="spider.net.xml"/>
        <route-files value="passenger_trips.xml,motorcycle_trips.xml,bus_trips.xml,delivery_trips.xml"/>
    </input>

    <output>
        <summary-output value="summary.xml"/>
        <tripinfo-output value="tripinfo.xml"/>
    </output>

    <time>
        <begin value="0"/>
        <end value="-1"/>
        <step-length value="1"/>
    </time>

    <routing>
        <device.rerouting.probability value="1"/>
        <device.rerouting.period value="300"/>
        <device.rerouting.pre-period value="300"/>
    </routing>

    <random_number>
        <random value="false"/>
        <seed value="23423"/>
    </random_number>

    <gui_only>
        <quit-on-end value="false"/>
        <game value="false"/>
        <start value="false"/>
        <demo value="false"/>
        <disable-textures value="false"/>
        <tracker-interval value="1"/>
        <osg-view value="false"/>
        <gui-testing value="false"/>
        <gui-testing-debug value="false"/>
    </gui_only>

</configuration>
-->

<tripinfos xmlns:xsi="http://www.w3.org/2001/XMLSchema-instance" xsi:noNamespaceSchemaLocation="http://sumo.dlr.de/xsd/tripinfo_file.xsd">
    <tripinfo id="passenger1" depart="10.00" departLane="B5B4_0" departPos="5.10" departSpeed="0.00" departDelay="0.00" arrival="57.00" arrivalLane="B4C4_0" arrivalPos="230.73" arrivalSpeed="11.99" duration="47.00" routeLength="519.91" waitingTime="0.00" waitingCount="0" stopTime="0.00" timeLoss="6.72" rerouteNo="0" devices="tripinfo_passenger1 routing_passenger1" vType="passenger_passenger" speedFactor="0.94" vaporized=""/>
    <tripinfo id="motorcycle1" depart="15.00" departLane="B5B4_0" departPos="2.30" departSpeed="0.00" departDelay="0.00" arrival="59.00" arrivalLane="B4C4_0" arrivalPos="230.73" arrivalSpeed="14.42" duration="44.00" routeLength="522.71" waitingTime="0.00" waitingCount="0" stopTime="0.00" timeLoss="8.40" rerouteNo="0" devices="tripinfo_motorcycle1 routing_motorcycle1" vType="motorcycle_motorcycle" speedFactor="1.08" vaporized=""/>
    <tripinfo id="passenger0" depart="0.00" departLane="C5B5_0" departPos="5.10" departSpeed="0.00" departDelay="0.00" arrival="66.00" arrivalLane="B1B5_0" arrivalPos="280.81" arrivalSpeed="13.81" duration="66.00" routeLength="803.30" waitingTime="0.00" waitingCount="0" stopTime="0.00" timeLoss="10.12" rerouteNo="1" devices="tripinfo_passenger0 routing_passenger0" vType="passenger_passenger" speedFactor="1.06" vaporized=""/>
    <tripinfo id="motorcycle0" depart="2.00" departLane="C5B5_0" departPos="2.30" departSpeed="0.00" departDelay="2.00" arrival="73.00" arrivalLane="B1B5_0" arrivalPos="280.81" arrivalSpeed="13.29" duration="71.00" routeLength="806.10" waitingTime="0.00" waitingCount="0" stopTime="0.00" timeLoss="12.12" rerouteNo="1" devices="tripinfo_motorcycle0 routing_motorcycle0" vType="motorcycle_motorcycle" speedFactor="1.01" vaporized=""/>
    <tripinfo id="bus0" depart="6.00" departLane="C5B5_0" departPos="12.10" departSpeed="0.00" departDelay="6.00" arrival="80.00" arrivalLane="B1B5_0" arrivalPos="280.81" arrivalSpeed="13.39" duration="74.00" routeLength="796.30" waitingTime="0.00" waitingCount="0" stopTime="0.00" timeLoss="14.58" rerouteNo="1" devices="tripinfo_bus0 routing_bus0" vType="bus_bus" speedFactor="1.00" vaporized=""/>
    <tripinfo id="delivery0" depart="11.00" departLane="C5B5_0" departPos="6.60" departSpeed="0.00" departDelay="11.00" arrival="83.00" arrivalLane="B1B5_0" arrivalPos="280.81" arrivalSpeed="13.70" duration="72.00" routeLength="801.80" waitingTime="0.00" waitingCount="0" stopTime="0.00" timeLoss="13.23" rerouteNo="1" devices="tripinfo_delivery0 routing_delivery0" vType="delivery_delivery" speedFactor="1.02" vaporized=""/>
    <tripinfo id="delivery1" depart="60.00" departLane="B5B4_0" departPos="6.60" departSpeed="0.00" departDelay="0.00" arrival="107.00" arrivalLane="B4C4_0" arrivalPos="230.73" arrivalSpeed="11.49" duration="47.00" routeLength="518.41" waitingTime="0.00" waitingCount="0" stopTime="0.00" timeLoss="5.82" rerouteNo="0" devices="tripinfo_delivery1 routing_delivery1" vType="delivery_delivery" speedFactor="0.92" vaporized=""/>
    <tripinfo id="passenger6" depart="63.00" departLane="B1B5_0" departPos="5.10" departSpeed="0.00" departDelay="3.00" arrival="140.00" arrivalLane="B4B3_0" arrivalPos="280.81" arrivalSpeed="6.01" duration="77.00" routeLength="853.79" waitingTime="0.00" waitingCount="0" stopTime="0.00" timeLoss="19.48" rerouteNo="1" devices="tripinfo_passenger6 routing_passenger6" vType="passenger_passenger" speedFactor="1.09" vaporized=""/>
    <tripinfo id="passenger8" depart="80.00" departLane="B4C4_0" departPos="5.10" departSpeed="0.00" departDelay="0.00" arrival="145.00" arrivalLane="C4C5_0" arrivalPos="560.16" arrivalSpeed="14.08" duration="65.00" routeLength="805.03" waitingTime="0.00" waitingCount="0" stopTime="0.00" timeLoss="7.88" rerouteNo="0" devices="tripinfo_passenger8 routing_passenger8" vType="passenger_passenger" speedFactor="1.05" vaporized=""/>
    <tripinfo id="passenger3" depart="30.00" departLane="D4C4_0" departPos="5.10" departSpeed="0.00" departDelay="0.00" arrival="155.00" arrivalLane="B2B3_0" arrivalPos="280.81" arrivalSpeed="11.63" duration="125.00" routeLength="1347.06" waitingTime="0.00" waitingCount="0" stopTime="0.00" timeLoss="12.84" rerouteNo="1" devices="tripinfo_passenger3 routing_passenger3" vType="passenger_passenger" speedFactor="0.89" vaporized=""/>
    <tripinfo id="motorcycle6" depart="90.00" departLane="B1B5_0" departPos="2.30" departSpeed="0.00" departDelay="0.00" arrival="155.00" arrivalLane="B4B3_0" arrivalPos="280.81" arrivalSpeed="15.95" duration="65.00" routeLength="856.59" waitingTime="0.00" waitingCount="0" stopTime="0.00" timeLoss="10.51" rerouteNo="1" devices="tripinfo_motorcycle6 routing_motorcycle6" vType="motorcycle_motorcycle" speedFactor="1.15" vaporized=""/>
    <tripinfo id="motorcycle3" depart="45.00" departLane="D4C4_0" departPos="2.30" departSpeed="0.00" departDelay="0.00" arrival="156.00" arrivalLane="B2B3_0" arrivalPos="280.81" arrivalSpeed="14.33" duration="111.00" routeLength="1349.86" waitingTime="0.00" waitingCount="0" stopTime="0.00" timeLoss="23.44" rerouteNo="1" devices="tripinfo_motorcycle3 routing_motorcycle3" vType="motorcycle_motorcycle" speedFactor="1.13" vaporized=""/>
    <tripinfo id="passenger13" depart="136.00" departLane="B2B3_0" departPos="5.10" departSpeed="0.00" departDelay="6.00" arrival="161.00" arrivalLane="B2B3_0" arrivalPos="280.81" arrivalSpeed="11.81" duration="25.00" routeLength="275.71" waitingTime="0.00" waitingCount="0" stopTime="0.00" timeLoss="3.67" rerouteNo="1" devices="tripinfo_passenger13 routing_passenger13" vType="passenger_passenger" speedFactor="0.94" vaporized=""/>
    <tripinfo id="bus1" depart="120.00" departLane="B5B4_0" departPos="12.10" departSpeed="0.00" departDelay="0.00" arrival="168.00" arrivalLane="B4C4_0" arrivalPos="230.73" arrivalSpeed="13.70" duration="48.00" routeLength="512.91" waitingTime="0.00" waitingCount="0" stopTime="0.00" timeLoss="9.91" rerouteNo="0" devices="tripinfo_bus1 routing_bus1" vType="bus_bus" speedFactor="1.00" vaporized=""/>
    <tripinfo id="motorcycle8" depart="120.00" departLane="B4C4_0" departPos="2.30" departSpeed="0.00" departDelay="0.00" arrival="179.00" arrivalLane="C4C5_0" arrivalPos="560.16" arrivalSpeed="14.21" duration="59.00" routeLength="807.83" waitingTime="0.00" waitingCount="0" stopTime="0.00" timeLoss="8.03" rerouteNo="0" devices="tripinfo_motorcycle8 routing_motorcycle8" vType="motorcycle_motorcycle" speedFactor="1.17" vaporized=""/>
    <tripinfo id="passenger4" depart="40.00" departLane="C2C3_0" departPos="5.10" departSpeed="0.00" departDelay="0.00" arrival="187.00" arrivalLane="B1B5_0" arrivalPos="280.81" arrivalSpeed="11.99" duration="147.00" routeLength="1677.39" waitingTime="0.00" waitingCount="0" stopTime="0.00" timeLoss="15.52" rerouteNo="1" devices="tripinfo_passenger4 routing_passenger4" vType="passenger_passenger" speedFactor="0.94" vaporized=""/>
    <tripinfo id="passenger5" depart="50.00" departLane="B4B5_0" departPos="5.10" departSpeed="0.00" departDelay="0.00" arrival="215.00" arrivalLane="C3C4_0" arrivalPos="560.16" arrivalSpeed="11.08" duration="165.00" routeLength="1676.46" waitingTime="0.00" waitingCount="0" stopTime="0.00" timeLoss="20.20" rerouteNo="1" devices="tripinfo_passenger5 routing_passenger5" vType="passenger_passenger" speedFactor="0.86" vaporized=""/>
    <tripinfo id="motorcycle4" depart="60.00" departLane="C2C3_0" departPos="2.30" departSpeed="0.00" departDelay="0.00" arrival="215.00" arrivalLane="B1B5_0" arrivalPos="280.81" arrivalSpeed="12.58" duration="155.00" routeLength="1680.19" waitingTime="0.00" waitingCount="0" stopTime="0.00" timeLoss="22.72" rerouteNo="1" devices="tripinfo_motorcycle4 routing_motorcycle4" vType="motorcycle_motorcycle" speedFactor="0.93" vaporized=""/>
    <tripinfo id="motorcycle5" depart="75.00" departLane="B4B5_0" departPos="2.30" departSpeed="0.00" departDelay="0.00" arrival="216.00" arrivalLane="C3C4_0" arrivalPos="560.16" arrivalSpeed="15.19" duration="141.00" routeLength="1679.26" waitingTime="0.00" waitingCount="0" stopTime="0.00" timeLoss="35.83" rerouteNo="1" devices="tripinfo_motorcycle5 routing_motorcycle5" vType="motorcycle_motorcycle" speedFactor="1.18" vaporized=""/>
    <tripinfo id="motorcycle13" depart="195.00" departLane="B2B3_0" departPos="2.30" departSpeed="0.00" departDelay="0.00" arrival="217.00" arrivalLane="B2B3_0" arrivalPos="280.81" arrivalSpeed="13.38" duration="22.00" routeLength="278.51" waitingTime="0.00" waitingCount="0" stopTime="0.00" timeLoss="3.24" rerouteNo="1" devices="tripinfo_motorcycle13 routing_motorcycle13" vType="motorcycle_motorcycle" speedFactor="1.10" vaporized=""/>
    <tripinfo id="passenger7" depart="70.00" departLane="C5C1_0" departPos="5.10" departSpeed="0.00" departDelay="0.00" arrival="222.00" arrivalLane="C4B4_0" arrivalPos="230.73" arrivalSpeed="13.19" duration="152.00" routeLength="1870.58" waitingTime="0.00" waitingCount="0" stopTime="0.00" timeLoss="18.26" rerouteNo="1" devices="tripinfo_passenger7 routing_passenger7" vType="passenger_passenger" speedFactor="1.03" vaporized=""/>
    <tripinfo id="passenger2" depart="20.00" departLane="D1D2_0" departPos="5.10" departSpeed="0.00" departDelay="0.00" arrival="231.00" arrivalLane="C5C4_0" arrivalPos="560.16" arrivalSpeed="13.91" duration="211.00" routeLength="2753.65" waitingTime="0.00" waitingCount="0" stopTime="0.00" timeLoss="18.54" rerouteNo="1" devices="tripinfo_passenger2 routing_passenger2" vType="passenger_passenger" speedFactor="1.05" vaporized=""/>
    <tripinfo id="passenger12" depart="120.00" departLane="D5C5_0" departPos="5.10" departSpeed="0.00" departDelay="0.00" arrival="245.00" arrivalLane="C1C2_0" arrivalPos="560.16" arrivalSpeed="12.00" duration="125.00" routeLength="1388.78" waitingTime="0.00" waitingCount="0" stopTime="0.00" timeLoss="10.75" rerouteNo="1" devices="tripinfo_passenger12 routing_passenger12" vType="passenger_passenger" speedFactor="0.88" vaporized=""/>
    <tripinfo id="passenger9" depart="90.00" departLane="D2D3_0" departPos="5.10" departSpeed="0.00" departDelay="0.00" arrival="254.00" arrivalLane="B1B2_0" arrivalPos="280.81" arrivalSpeed="15.07" duration="164.00" routeLength="2225.70" waitingTime="0.00" waitingCount="0" stopTime="0.00" timeLoss="18.09" rerouteNo="1" devices="tripinfo_passenger9 routing_passenger9" vType="passenger_passenger" speedFactor="1.12" vaporized=""/>
    <tripinfo id="passenger11" depart="110.00" departLane="C1C5_0" departPos="5.10" departSpeed="0.00" departDelay="0.00" arrival="261.00" arrivalLane="B3B4_0" arrivalPos="280.81" arrivalSpeed="12.79" duration="151.00" routeLength="1668.92" waitingTime="0.00" waitingCount="0" stopTime="0.00" timeLoss="17.23" rerouteNo="1" devices="tripinfo_passenger11 routing_passenger11" vType="passenger_passenger" speedFactor="0.93" vaporized=""/>
    <tripinfo id="motorcycle7" depart="105.00" departLane="C5C1_0" departPos="2.30" departSpeed="0.00" departDelay="0.00" arrival="269.00" arrivalLane="C4B4_0" arrivalPos="230.73" arrivalSpeed="13.02" duration="164.00" routeLength="1948.83" waitingTime="0.00" waitingCount="0" stopTime="0.00" timeLoss="21.51" rerouteNo="1" devices="tripinfo_motorcycle7 routing_motorcycle7" vType="motorcycle_motorcycle" speedFactor="1.01" vaporized=""/>
    <tripinfo id="passenger18" depart="185.00" departLane="D3C3_0" departPos="5.10" departSpeed="0.00" departDelay="5.00" arrival="272.00" arrivalLane="C4D4_0" arrivalPos="229.64" arrivalSpeed="12.48" duration="87.00" routeLength="1047.68" waitingTime="0.00" waitingCount="0" stopTime="0.00" timeLoss="8.55" rerouteNo="1" devices="tripinfo_passenger18 routing_passenger18" vType="passenger_passenger" speedFactor="0.98" vaporized=""/>
    <tripinfo id="passenger20" depart="200.00" departLane="D1C1_0" departPos="5.10" departSpeed="0.00" departDelay="0.00" arrival="273.00" arrivalLane="B1C1_0" arrivalPos="230.73" arrivalSpeed="10.50" duration="73.00" routeLength="713.67" waitingTime="0.00" waitingCount="0" stopTime="0.00" timeLoss="9.39" rerouteNo="1" devices="tripinfo_passenger20 routing_passenger20" vType="passenger_passenger" speedFactor="0.83" vaporized=""/>
    <tripinfo id="motorcycle2" depart="30.00" departLane="D1D2_0" departPos="2.30" departSpeed="0.00" departDelay="0.00" arrival="274.00" arrivalLane="C5C4_0" arrivalPos="560.16" arrivalSpeed="12.24" duration="244.00" routeLength="2756.45" waitingTime="0.00" waitingCount="0" stopTime="0.00" timeLoss="31.06" rerouteNo="1" devices="tripinfo_motorcycle2 routing_motorcycle2" vType="motorcycle_motorcycle" speedFactor="0.95" vaporized=""/>
    <tripinfo id="motorcycle12" depart="180.00" departLane="D5C5_0" departPos="2.30" departSpeed="0.00" departDelay="0.00" arrival="276.00" arrivalLane="C1C2_0" arrivalPos="560.16" arrivalSpeed="14.00" duration="96.00" routeLength="1391.58" waitingTime="0.00" waitingCount="0" stopTime="0.00" timeLoss="10.76" rerouteNo="1" devices="tripinfo_motorcycle12 routing_motorcycle12" vType="motorcycle_motorcycle" speedFactor="1.18" vaporized=""/>
    <tripinfo id="delivery3" depart="180.00" departLane="D4C4_0" departPos="6.60" departSpeed="0.00" departDelay="0.00" arrival="289.00" arrivalLane="B2B3_0" arrivalPos="280.81" arrivalSpeed="14.22" duration="109.00" routeLength="1345.56" waitingTime="0.00" waitingCount="0" stopTime="0.00" timeLoss="13.94" rerouteNo="1" devices="tripinfo_delivery3 routing_delivery3" vType="delivery_delivery" speedFactor="1.05" vaporized=""/>
    <tripinfo id="passenger10" depart="100.00" departLane="D2D3_0" departPos="5.10" departSpeed="0.00" departDelay="0.00" arrival="296.00" arrivalLane="C5D5_0" arrivalPos="229.64" arrivalSpeed="13.04" duration="196.00" routeLength="2428.69" waitingTime="0.00" waitingCount="0" stopTime="0.00" timeLoss="16.90" rerouteNo="1" devices="tripinfo_passenger10 routing_passenger10" vType="passenger_passenger" speedFactor="0.99" vaporized=""/>
    <tripinfo id="passenger21" depart="210.00" departLane="B4C4_0" departPos="5.10" departSpeed="0.00" departDelay="0.00" arrival="307.00" arrivalLane="B5C5_0" arrivalPos="230.73" arrivalSpeed="11.38" duration="97.00" routeLength="992.70" waitingTime="0.00" waitingCount="0" stopTime="0.00" timeLoss="12.50" rerouteNo="1" devices="tripinfo_passenger21 routing_passenger21" vType="passenger_passenger" speedFactor="0.87" vaporized=""/>
    <tripinfo id="motorcycle11" depart="165.00" departLane="C1C5_0" departPos="2.30" departSpeed="0.00" departDelay="0.00" arrival="313.00" arrivalLane="B3B4_0" arrivalPos="280.81" arrivalSpeed="10.59" duration="148.00" routeLength="1671.72" waitingTime="0.00" waitingCount="0" stopTime="0.00" timeLoss="21.36" rerouteNo="1" devices="tripinfo_motorcycle11 routing_motorcycle11" vType="motorcycle_motorcycle" speedFactor="0.97" vaporized=""/>
    <tripinfo id="passenger24" depart="240.00" departLane="C5B5_0" departPos="5.10" departSpeed="0.00" departDelay="0.00" arrival="316.00" arrivalLane="C1D1_0" arrivalPos="229.64" arrivalSpeed="14.34" duration="76.00" routeLength="1004.67" waitingTime="0.00" waitingCount="0" stopTime="0.00" timeLoss="8.29" rerouteNo="1" devices="tripinfo_passenger24 routing_passenger24" vType="passenger_passenger" speedFactor="1.09" vaporized=""/>
    <tripinfo id="passenger22" depart="220.00" departLane="B2B1_0" departPos="5.10" departSpeed="0.00" departDelay="0.00" arrival="319.00" arrivalLane="B4C4_0" arrivalPos="230.73" arrivalSpeed="12.30" duration="99.00" routeLength="1097.99" waitingTime="0.00" waitingCount="0" stopTime="0.00" timeLoss="11.68" rerouteNo="1" devices="tripinfo_passenger22 routing_passenger22" vType="passenger_passenger" speedFactor="0.92" vaporized=""/>
    <tripinfo id="passenger17" depart="170.00" departLane="C1D1_0" departPos="5.10" departSpeed="0.00" departDelay="0.00" arrival="320.00" arrivalLane="C4B4_0" arrivalPos="230.73" arrivalSpeed="13.79" duration="150.00" routeLength="1778.12" waitingTime="0.00" waitingCount="0" stopTime="0.00" timeLoss="20.03" rerouteNo="1" devices="tripinfo_passenger17 routing_passenger17" vType="passenger_passenger" speedFactor="1.01" vaporized=""/>
    <tripinfo id="motorcycle9" depart="135.00" departLane="D2D3_0" departPos="2.30" departSpeed="0.00" departDelay="0.00" arrival="327.00" arrivalLane="B1B2_0" arrivalPos="280.81" arrivalSpeed="11.99" duration="192.00" routeLength="2228.50" waitingTime="0.00" waitingCount="0" stopTime="0.00" timeLoss="27.81" rerouteNo="1" devices="tripinfo_motorcycle9 routing_motorcycle9" vType="motorcycle_motorcycle" speedFactor="0.99" vaporized=""/>
    <tripinfo id="passenger19" depart="190.00" departLane="D3D4_0" departPos="5.10" departSpeed="0.00" departDelay="0.00" arrival="340.00" arrivalLane="C4C3_0" arrivalPos="560.16" arrivalSpeed="11.46" duration="150.00" routeLength="1684.39" waitingTime="0.00" waitingCount="0" stopTime="0.00" timeLoss="12.30" rerouteNo="1" devices="tripinfo_passenger19 routing_passenger19" vType="passenger_passenger" speedFactor="0.89" vaporized=""/>
    <tripinfo id="passenger23" depart="231.00" departLane="B2C2_0" departPos="5.10" departSpeed="0.00" departDelay="1.00" arrival="340.00" arrivalLane="B5B4_0" arrivalPos="280.81" arrivalSpeed="14.43" duration="109.00" routeLength="1336.02" waitingTime="0.00" waitingCount="0" stopTime="0.00" timeLoss="13.75" rerouteNo="1" devices="tripinfo_passenger23 routing_passenger23" vType="passenger_passenger" speedFactor="1.04" vaporized=""/>
    <tripinfo id="delivery2" depart="120.00" departLane="D1D2_0" departPos="6.60" departSpeed="0.00" departDelay="0.00" arrival="345.00" arrivalLane="C5C4_0" arrivalPos="560.16" arrivalSpeed="12.59" duration="225.00" routeLength="2752.15" waitingTime="0.00" waitingCount="0" stopTime="0.00" timeLoss="19.08" rerouteNo="1" devices="tripinfo_delivery2 routing_delivery2" vType="delivery_delivery" speedFactor="0.98" vaporized=""/>
    <tripinfo id="passenger14" depart="140.00" departLane="D3D2_0" departPos="5.10" departSpeed="0.00" departDelay="0.00" arrival="346.00" arrivalLane="C4D4_0" arrivalPos="229.64" arrivalSpeed="12.43" duration="206.00" routeLength="2415.80" waitingTime="0.00" waitingCount="0" stopTime="0.00" timeLoss="17.30" rerouteNo="1" devices="tripinfo_passenger14 routing_passenger14" vType="passenger_passenger" speedFactor="0.94" vaporized=""/>
    <tripinfo id="motorcycle10" depart="152.00" departLane="D2D3_0" departPos="2.30" departSpeed="0.00" departDelay="2.00" arrival="353.00" arrivalLane="C5D5_0" arrivalPos="229.64" arrivalSpeed="11.29" duration="201.00" routeLength="2431.49" waitingTime="0.00" waitingCount="0" stopTime="0.00" timeLoss="26.35" rerouteNo="1" devices="tripinfo_motorcycle10 routing_motorcycle10" vType="motorcycle_motorcycle" speedFactor="1.02" vaporized=""/>
    <tripinfo id="motorcycle20" depart="300.00" departLane="D1C1_0" departPos="2.30" departSpeed="0.00" departDelay="0.00" arrival="361.00" arrivalLane="B1C1_0" arrivalPos="230.73" arrivalSpeed="11.84" duration="61.00" routeLength="716.47" waitingTime="0.00" waitingCount="0" stopTime="0.00" timeLoss="8.93" rerouteNo="1" devices="tripinfo_motorcycle20 routing_motorcycle20" vType="motorcycle_motorcycle" speedFactor="1.02" vaporized=""/>
    <tripinfo id="motorcycle18" depart="270.00" departLane="D3C3_0" departPos="2.30" departSpeed="0.00" departDelay="0.00" arrival="367.00" arrivalLane="C4D4_0" arrivalPos="229.64" arrivalSpeed="11.15" duration="97.00" routeLength="1050.48" waitingTime="0.00" waitingCount="0" stopTime="0.00" timeLoss="13.55" rerouteNo="1" devices="tripinfo_motorcycle18 routing_motorcycle18" vType="motorcycle_motorcycle" speedFactor="0.91" vaporized=""/>
    <tripinfo id="passenger16" depart="160.00" departLane="C3D3_0" departPos="5.10" departSpeed="0.00" departDelay="0.00" arrival="373.00" arrivalLane="D5D1_0" arrivalPos="854.05" arrivalSpeed="14.04" duration="213.00" routeLength="2665.63" waitingTime="0.00" waitingCount="0" stopTime="0.00" timeLoss="20.23" rerouteNo="1" devices="tripinfo_passenger16 routing_passenger16" vType="passenger_passenger" speedFactor="1.02" vaporized=""/>
    <tripinfo id="passenger25" depart="250.00" departLane="C1D1_0" departPos="5.10" departSpeed="0.00" departDelay="0.00" arrival="384.00" arrivalLane="B4B5_0" arrivalPos="280.81" arrivalSpeed="13.63" duration="134.00" routeLength="1584.00" waitingTime="0.00" waitingCount="0" stopTime="0.00" timeLoss="16.56" rerouteNo="1" devices="tripinfo_passenger25 routing_passenger25" vType="passenger_passenger" speedFactor="1.00" vaporized=""/>
    <tripinfo id="delivery4" depart="240.00" departLane="C2C3_0" departPos="6.60" departSpeed="0.00" departDelay="0.00" arrival="389.00" arrivalLane="B1B5_0" arrivalPos="280.81" arrivalSpeed="12.93" duration="149.00" routeLength="1675.89" waitingTime="0.00" waitingCount="0" stopTime="0.00" timeLoss="28.41" rerouteNo="1" devices="tripinfo_delivery4 routing_delivery4" vType="delivery_delivery" speedFactor="1.02" vaporized=""/>
    <tripinfo id="passenger31" depart="310.00" departLane="C4B4_0" departPos="5.10" departSpeed="0.00" departDelay="0.00" arrival="390.00" arrivalLane="C5D5_0" arrivalPos="229.64" arrivalSpeed="12.98" duration="80.00" routeLength="1004.67" waitingTime="0.00" waitingCount="0" stopTime="0.00" timeLoss="8.10" rerouteNo="1" devices="tripinfo_passenger31 routing_passenger31" vType="passenger_passenger" speedFactor="1.02" vaporized=""/>
    <tripinfo id="passenger15" depart="150.00" departLane="D2D3_0" departPos="5.10" departSpeed="0.00" departDelay="0.00" arrival="398.00" arrivalLane="D1D2_0" arrivalPos="854.05" arrivalSpeed="15.82" duration="248.00" routeLength="3310.43" waitingTime="0.00" waitingCount="0" stopTime="0.00" timeLoss="39.82" rerouteNo="1" devices="tripinfo_passenger15 routing_passenger15" vType="passenger_passenger" speedFactor="1.16" vaporized=""/>
    <tripinfo id="passenger32" depart="320.00" departLane="D3D2_0" departPos="5.10" departSpeed="0.00" departDelay="0.00" arrival="401.00" arrivalLane="D2C2_0" arrivalPos="229.64" arrivalSpeed="15.15" duration="81.00" routeLength="1090.29" waitingTime="0.00" waitingCount="0" stopTime="0.00" timeLoss="8.47" rerouteNo="0" devices="tripinfo_passenger32 routing_passenger32" vType="passenger_passenger" speedFactor="1.10" vaporized=""/>
    <tripinfo id="motorcycle21" depart="315.00" departLane="B4C4_0" departPos="2.30" departSpeed="0.00" departDelay="0.00" arrival="401.00" arrivalLane="B5C5_0" arrivalPos="230.73" arrivalSpeed="13.51" duration="86.00" routeLength="995.50" waitingTime="0.00" waitingCount="0" stopTime="0.00" timeLoss="13.55" rerouteNo="1" devices="tripinfo_motorcycle21 routing_motorcycle21" vType="motorcycle_motorcycle" speedFactor="1.02" vaporized=""/>
    <tripinfo id="passenger26" depart="260.00" departLane="B5B4_0" departPos="5.10" departSpeed="0.00" departDelay="0.00" arrival="410.00" arrivalLane="D4D5_0" arrivalPos="854.05" arrivalSpeed="11.67" duration="150.00" routeLength="1648.55" waitingTime="0.00" waitingCount="0" stopTime="0.00" timeLoss="16.85" rerouteNo="1" devices="tripinfo_passenger26 routing_passenger26" vType="passenger_passenger" speedFactor="0.90" vaporized=""/>
    <tripinfo id="passenger34" depart="340.00" departLane="C1B1_0" departPos="5.10" departSpeed="0.00" departDelay="0.00" arrival="411.00" arrivalLane="B5B4_0" arrivalPos="280.81" arrivalSpeed="4.28" duration="71.00" routeLength="808.95" waitingTime="0.00" waitingCount="0" stopTime="0.00" timeLoss="11.71" rerouteNo="1" devices="tripinfo_passenger34 routing_passenger34" vType="passenger_passenger" speedFactor="1.00" vaporized=""/>
    <tripinfo id="motorcycle19" depart="285.00" departLane="D3D4_0" departPos="2.30" departSpeed="0.00" departDelay="0.00" arrival="419.00" arrivalLane="C4C3_0" arrivalPos="560.16" arrivalSpeed="12.02" duration="134.00" routeLength="1687.19" waitingTime="0.00" waitingCount="0" stopTime="0.00" timeLoss="15.82" rerouteNo="1" devices="tripinfo_motorcycle19 routing_motorcycle19" vType="motorcycle_motorcycle" speedFactor="1.04" vaporized=""/>
    <tripinfo id="motorcycle17" depart="255.00" departLane="C1D1_0" departPos="2.30" departSpeed="0.00" departDelay="0.00" arrival="428.00" arrivalLane="C4B4_0" arrivalPos="230.73" arrivalSpeed="10.39" duration="173.00" routeLength="1780.92" waitingTime="0.00" waitingCount="0" stopTime="0.00" timeLoss="27.00" rerouteNo="1" devices="tripinfo_motorcycle17 routing_motorcycle17" vType="motorcycle_motorcycle" speedFactor="0.91" vaporized=""/>
    <tripinfo id="motorcycle22" depart="330.00" departLane="B2B1_0" departPos="2.30" departSpeed="0.00" departDelay="0.00" arrival="429.00" arrivalLane="B4C4_0" arrivalPos="230.73" arrivalSpeed="12.74" duration="99.00" routeLength="1100.79" waitingTime="0.00" waitingCount="0" stopTime="0.00" timeLoss="15.84" rerouteNo="1" devices="tripinfo_motorcycle22 routing_motorcycle22" vType="motorcycle_motorcycle" speedFactor="0.97" vaporized=""/>
    <tripinfo id="passenger30" depart="300.00" departLane="D5D4_0" departPos="5.10" departSpeed="0.00" departDelay="0.00" arrival="433.00" arrivalLane="C5B5_0" arrivalPos="230.73" arrivalSpeed="15.21" duration="133.00" routeLength="1917.09" waitingTime="0.00" waitingCount="0" stopTime="0.00" timeLoss="12.18" rerouteNo="1" devices="tripinfo_passenger30 routing_passenger30" vType="passenger_passenger" speedFactor="1.17" vaporized=""/>
    <tripinfo id="delivery5" depart="300.00" departLane="B4B5_0" departPos="6.60" departSpeed="0.00" departDelay="0.00" arrival="435.00" arrivalLane="C3C4_0" arrivalPos="560.16" arrivalSpeed="13.72" duration="135.00" routeLength="1674.96" waitingTime="0.00" waitingCount="0" stopTime="0.00" timeLoss="16.33" rerouteNo="1" devices="tripinfo_delivery5 routing_delivery5" vType="delivery_delivery" speedFactor="1.04" vaporized=""/>
    <tripinfo id="delivery6" depart="363.00" departLane="B1B5_0" departPos="6.60" departSpeed="0.00" departDelay="3.00" arrival="437.00" arrivalLane="B4B3_0" arrivalPos="280.81" arrivalSpeed="13.20" duration="74.00" routeLength="852.29" waitingTime="0.00" waitingCount="0" stopTime="0.00" timeLoss="12.04" rerouteNo="1" devices="tripinfo_delivery6 routing_delivery6" vType="delivery_delivery" speedFactor="1.02" vaporized=""/>
    <tripinfo id="motorcycle14" depart="210.00" departLane="D3D2_0" departPos="2.30" departSpeed="0.00" departDelay="0.00" arrival="439.00" arrivalLane="C4D4_0" arrivalPos="229.64" arrivalSpeed="10.51" duration="229.00" routeLength="2418.60" waitingTime="0.00" waitingCount="0" stopTime="0.00" timeLoss="33.32" rerouteNo="1" devices="tripinfo_motorcycle14 routing_motorcycle14" vType="motorcycle_motorcycle" speedFactor="0.90" vaporized=""/>
    <tripinfo id="passenger29" depart="290.00" departLane="B3C3_0" departPos="5.10" departSpeed="0.00" departDelay="0.00" arrival="441.00" arrivalLane="C1D1_0" arrivalPos="229.64" arrivalSpeed="11.63" duration="151.00" routeLength="1541.18" waitingTime="2.00" waitingCount="1" stopTime="0.00" timeLoss="19.06" rerouteNo="1" devices="tripinfo_passenger29 routing_passenger29" vType="passenger_passenger" speedFactor="0.85" vaporized=""/>
    <tripinfo id="motorcycle24" depart="360.00" departLane="C5B5_0" departPos="2.30" departSpeed="0.00" departDelay="0.00" arrival="443.00" arrivalLane="C1D1_0" arrivalPos="229.64" arrivalSpeed="14.29" duration="83.00" routeLength="1007.47" waitingTime="0.00" waitingCount="0" stopTime="0.00" timeLoss="13.04" rerouteNo="1" devices="tripinfo_motorcycle24 routing_motorcycle24" vType="motorcycle_motorcycle" speedFactor="1.06" vaporized=""/>
    <tripinfo id="passenger35" depart="350.00" departLane="B4B5_0" departPos="5.10" departSpeed="0.00" departDelay="0.00" arrival="445.00" arrivalLane="D5C5_0" arrivalPos="229.64" arrivalSpeed="11.74" duration="95.00" routeLength="1002.13" waitingTime="0.00" waitingCount="0" stopTime="0.00" timeLoss="12.28" rerouteNo="1" devices="tripinfo_passenger35 routing_passenger35" vType="passenger_passenger" speedFactor="0.90" vaporized=""/>
    <tripinfo id="passenger27" depart="270.00" departLane="C5C1_0" departPos="5.10" departSpeed="0.00" departDelay="0.00" arrival="446.00" arrivalLane="C4D4_0" arrivalPos="229.64" arrivalSpeed="11.41" duration="176.00" routeLength="1882.55" waitingTime="0.00" waitingCount="0" stopTime="0.00" timeLoss="18.41" rerouteNo="1" devices="tripinfo_passenger27 routing_passenger27" vType="passenger_passenger" speedFactor="0.88" vaporized=""/>