<?xml version="1.0" encoding="UTF-8"?>

<!-- generated on 2024-10-25 17:03:58 by Eclipse SUMO GUI Version 1.15.0
<configuration xmlns:xsi="http://www.w3.org/2001/XMLSchema-instance" xsi:noNamespaceSchemaLocation="http://sumo.dlr.de/xsd/sumoConfiguration.xsd">

    <input>
        <net-file value="spider.net.xml"/>
        <route-files value="spider_trip.xml"/>
    </input>

    <output>
        <emission-output value="emissions.xml"/>
        <summary-output value="summary.xml"/>
        <tripinfo-output value="tripinfo.xml"/>
    </output>

    <time>
        <begin value="0"/>
        <end value="-1"/>
        <step-length value="1"/>
    </time>

    <random_number>
        <random value="false"/>
        <seed value="23423"/>
    </random_number>

    <gui_only>
        <quit-on-end value="false"/>
        <game value="false"/>
        <start value="false"/>
        <demo value="false"/>
        <disable-textures value="false"/>
        <tracker-interval value="1"/>
        <osg-view value="false"/>
        <gui-testing value="false"/>
        <gui-testing-debug value="false"/>
    </gui_only>

</configuration>
-->

<tripinfos xmlns:xsi="http://www.w3.org/2001/XMLSchema-instance" xsi:noNamespaceSchemaLocation="http://sumo.dlr.de/xsd/tripinfo_file.xsd">
    <tripinfo id="trip1" depart="0.00" departLane="D4D5_0" departPos="5.10" departSpeed="0.00" departDelay="0.00" arrival="409.00" arrivalLane="D2D3_0" arrivalPos="854.05" arrivalSpeed="14.10" duration="409.00" routeLength="5344.89" waitingTime="0.00" waitingCount="0" stopTime="0.00" timeLoss="39.19" rerouteNo="0" devices="tripinfo_trip1 emissions_trip1" vType="DEFAULT_VEHTYPE" speedFactor="1.06" vaporized="">
        <emissions CO_abs="11112.518130" CO2_abs="1156504.091733" HC_abs="74.912363" PMx_abs="16.802452" NOx_abs="436.169388" fuel_abs="368872.060724" electricity_abs="0"/>
    </tripinfo>
</tripinfos>
